title = "dataset het_2d"
variables = "x", "y", "z","calcite-ch","porosity"
zone t = "phi_i, T =  1.000E+01 days", i =   21, j =   41, k =    1,  f=point
  0.0000000E+00  0.0000000E+00  0.0000000E+00  0.1000000E-06  0.9999999E+00
  0.5000000E-02  0.0000000E+00  0.0000000E+00  0.1000000E-06  0.9999999E+00
  0.1000000E-01  0.0000000E+00  0.0000000E+00  0.1000000E-06  0.9999999E+00
  0.1500000E-01  0.0000000E+00  0.0000000E+00  0.1000000E-06  0.9999999E+00
  0.2000000E-01  0.0000000E+00  0.0000000E+00  0.1000000E-06  0.9999999E+00
  0.2500000E-01  0.0000000E+00  0.0000000E+00  0.1000000E-04  0.9999900E+00
  0.3000000E-01  0.0000000E+00  0.0000000E+00  0.1000000E-04  0.9999900E+00
  0.3500000E-01  0.0000000E+00  0.0000000E+00  0.1000000E-04  0.9999900E+00
  0.4000000E-01  0.0000000E+00  0.0000000E+00  0.1000000E-04  0.9999900E+00
  0.4500000E-01  0.0000000E+00  0.0000000E+00  0.1000000E-04  0.9999900E+00
  0.5000000E-01  0.0000000E+00  0.0000000E+00  0.1000000E-04  0.9999900E+00
  0.5500000E-01  0.0000000E+00  0.0000000E+00  0.1000000E-04  0.9999900E+00
  0.6000000E-01  0.0000000E+00  0.0000000E+00  0.1000000E-04  0.9999900E+00
  0.6500000E-01  0.0000000E+00  0.0000000E+00  0.1000000E-04  0.9999900E+00
  0.7000000E-01  0.0000000E+00  0.0000000E+00  0.1000000E-04  0.9999900E+00
  0.7500000E-01  0.0000000E+00  0.0000000E+00  0.1000000E-04  0.9999900E+00
  0.8000000E-01  0.0000000E+00  0.0000000E+00  0.1000000E-04  0.9999900E+00
  0.8500000E-01  0.0000000E+00  0.0000000E+00  0.1000000E-04  0.9999900E+00
  0.9000000E-01  0.0000000E+00  0.0000000E+00  0.1000000E-04  0.9999900E+00
  0.9500000E-01  0.0000000E+00  0.0000000E+00  0.1000000E-04  0.9999900E+00
  0.1000000E+00  0.0000000E+00  0.0000000E+00  0.1000000E-04  0.9999900E+00
  0.0000000E+00  0.0000000E+00  0.5000000E-02  0.1000000E-06  0.9999999E+00
  0.5000000E-02  0.0000000E+00  0.5000000E-02  0.1000000E-06  0.9999999E+00
  0.1000000E-01  0.0000000E+00  0.5000000E-02  0.1000000E-06  0.9999999E+00
  0.1500000E-01  0.0000000E+00  0.5000000E-02  0.1000000E-06  0.9999999E+00
  0.2000000E-01  0.0000000E+00  0.5000000E-02  0.1000000E-06  0.9999999E+00
  0.2500000E-01  0.0000000E+00  0.5000000E-02  0.9613023E-05  0.9999904E+00
  0.3000000E-01  0.0000000E+00  0.5000000E-02  0.9948689E-05  0.9999901E+00
  0.3500000E-01  0.0000000E+00  0.5000000E-02  0.9952881E-05  0.9999900E+00
  0.4000000E-01  0.0000000E+00  0.5000000E-02  0.9953002E-05  0.9999900E+00
  0.4500000E-01  0.0000000E+00  0.5000000E-02  0.9952964E-05  0.9999900E+00
  0.5000000E-01  0.0000000E+00  0.5000000E-02  0.9952914E-05  0.9999900E+00
  0.5500000E-01  0.0000000E+00  0.5000000E-02  0.9952853E-05  0.9999900E+00
  0.6000000E-01  0.0000000E+00  0.5000000E-02  0.9952804E-05  0.9999900E+00
  0.6500000E-01  0.0000000E+00  0.5000000E-02  0.9952876E-05  0.9999900E+00
  0.7000000E-01  0.0000000E+00  0.5000000E-02  0.9953066E-05  0.9999900E+00
  0.7500000E-01  0.0000000E+00  0.5000000E-02  0.9953056E-05  0.9999900E+00
  0.8000000E-01  0.0000000E+00  0.5000000E-02  0.9952616E-05  0.9999900E+00
  0.8500000E-01  0.0000000E+00  0.5000000E-02  0.9952315E-05  0.9999900E+00
  0.9000000E-01  0.0000000E+00  0.5000000E-02  0.9952758E-05  0.9999900E+00
  0.9500000E-01  0.0000000E+00  0.5000000E-02  0.9953019E-05  0.9999900E+00
  0.1000000E+00  0.0000000E+00  0.5000000E-02  0.9952149E-05  0.9999900E+00
  0.0000000E+00  0.0000000E+00  0.1000000E-01  0.1000000E-06  0.9999999E+00
  0.5000000E-02  0.0000000E+00  0.1000000E-01  0.1000000E-06  0.9999999E+00
  0.1000000E-01  0.0000000E+00  0.1000000E-01  0.1000000E-06  0.9999999E+00
  0.1500000E-01  0.0000000E+00  0.1000000E-01  0.1000000E-06  0.9999999E+00
  0.2000000E-01  0.0000000E+00  0.1000000E-01  0.1000000E-06  0.9999999E+00
  0.2500000E-01  0.0000000E+00  0.1000000E-01  0.9538708E-05  0.9999905E+00
  0.3000000E-01  0.0000000E+00  0.1000000E-01  0.9964550E-05  0.9999900E+00
  0.3500000E-01  0.0000000E+00  0.1000000E-01  0.9971374E-05  0.9999900E+00
  0.4000000E-01  0.0000000E+00  0.1000000E-01  0.9971530E-05  0.9999900E+00
  0.4500000E-01  0.0000000E+00  0.1000000E-01  0.9971508E-05  0.9999900E+00
  0.5000000E-01  0.0000000E+00  0.1000000E-01  0.9971478E-05  0.9999900E+00
  0.5500000E-01  0.0000000E+00  0.1000000E-01  0.9971374E-05  0.9999900E+00
  0.6000000E-01  0.0000000E+00  0.1000000E-01  0.9971053E-05  0.9999900E+00
  0.6500000E-01  0.0000000E+00  0.1000000E-01  0.9970752E-05  0.9999900E+00
  0.7000000E-01  0.0000000E+00  0.1000000E-01  0.9971073E-05  0.9999900E+00
  0.7500000E-01  0.0000000E+00  0.1000000E-01  0.9971887E-05  0.9999900E+00
  0.8000000E-01  0.0000000E+00  0.1000000E-01  0.9971759E-05  0.9999900E+00
  0.8500000E-01  0.0000000E+00  0.1000000E-01  0.9970477E-05  0.9999900E+00
  0.9000000E-01  0.0000000E+00  0.1000000E-01  0.9970552E-05  0.9999900E+00
  0.9500000E-01  0.0000000E+00  0.1000000E-01  0.9971881E-05  0.9999900E+00
  0.1000000E+00  0.0000000E+00  0.1000000E-01  0.9971796E-05  0.9999900E+00
  0.0000000E+00  0.0000000E+00  0.1500000E-01  0.1419760E-06  0.9999999E+00
  0.5000000E-02  0.0000000E+00  0.1500000E-01  0.1419541E-06  0.9999999E+00
  0.1000000E-01  0.0000000E+00  0.1500000E-01  0.1426541E-06  0.9999999E+00
  0.1500000E-01  0.0000000E+00  0.1500000E-01  0.1563027E-06  0.9999998E+00
  0.2000000E-01  0.0000000E+00  0.1500000E-01  0.4074189E-06  0.9999996E+00
  0.2500000E-01  0.0000000E+00  0.1500000E-01  0.9585126E-05  0.9999904E+00
  0.3000000E-01  0.0000000E+00  0.1500000E-01  0.9974886E-05  0.9999900E+00
  0.3500000E-01  0.0000000E+00  0.1500000E-01  0.9982366E-05  0.9999900E+00
  0.4000000E-01  0.0000000E+00  0.1500000E-01  0.9982458E-05  0.9999900E+00
  0.4500000E-01  0.0000000E+00  0.1500000E-01  0.9982385E-05  0.9999900E+00
  0.5000000E-01  0.0000000E+00  0.1500000E-01  0.9982444E-05  0.9999900E+00
  0.5500000E-01  0.0000000E+00  0.1500000E-01  0.9982681E-05  0.9999900E+00
  0.6000000E-01  0.0000000E+00  0.1500000E-01  0.9982568E-05  0.9999900E+00
  0.6500000E-01  0.0000000E+00  0.1500000E-01  0.9981584E-05  0.9999900E+00
  0.7000000E-01  0.0000000E+00  0.1500000E-01  0.9980652E-05  0.9999900E+00
  0.7500000E-01  0.0000000E+00  0.1500000E-01  0.9981547E-05  0.9999900E+00
  0.8000000E-01  0.0000000E+00  0.1500000E-01  0.9983085E-05  0.9999900E+00
  0.8500000E-01  0.0000000E+00  0.1500000E-01  0.9981861E-05  0.9999900E+00
  0.9000000E-01  0.0000000E+00  0.1500000E-01  0.9980063E-05  0.9999900E+00
  0.9500000E-01  0.0000000E+00  0.1500000E-01  0.9981138E-05  0.9999900E+00
  0.1000000E+00  0.0000000E+00  0.1500000E-01  0.9982465E-05  0.9999900E+00
  0.0000000E+00  0.0000000E+00  0.2000000E-01  0.9519179E-06  0.9999990E+00
  0.5000000E-02  0.0000000E+00  0.2000000E-01  0.9518642E-06  0.9999990E+00
  0.1000000E-01  0.0000000E+00  0.2000000E-01  0.9532766E-06  0.9999990E+00
  0.1500000E-01  0.0000000E+00  0.2000000E-01  0.9800370E-06  0.9999990E+00
  0.2000000E-01  0.0000000E+00  0.2000000E-01  0.1431470E-05  0.9999986E+00
  0.2500000E-01  0.0000000E+00  0.2000000E-01  0.9686091E-05  0.9999903E+00
  0.3000000E-01  0.0000000E+00  0.2000000E-01  0.9982593E-05  0.9999900E+00
  0.3500000E-01  0.0000000E+00  0.2000000E-01  0.9988958E-05  0.9999900E+00
  0.4000000E-01  0.0000000E+00  0.2000000E-01  0.9988918E-05  0.9999900E+00
  0.4500000E-01  0.0000000E+00  0.2000000E-01  0.9988561E-05  0.9999900E+00
  0.5000000E-01  0.0000000E+00  0.2000000E-01  0.9988211E-05  0.9999900E+00
  0.5500000E-01  0.0000000E+00  0.2000000E-01  0.9988535E-05  0.9999900E+00
  0.6000000E-01  0.0000000E+00  0.2000000E-01  0.9989541E-05  0.9999900E+00
  0.6500000E-01  0.0000000E+00  0.2000000E-01  0.9989597E-05  0.9999900E+00
  0.7000000E-01  0.0000000E+00  0.2000000E-01  0.9987543E-05  0.9999900E+00
  0.7500000E-01  0.0000000E+00  0.2000000E-01  0.9986245E-05  0.9999900E+00
  0.8000000E-01  0.0000000E+00  0.2000000E-01  0.9988615E-05  0.9999900E+00
  0.8500000E-01  0.0000000E+00  0.2000000E-01  0.9990021E-05  0.9999900E+00
  0.9000000E-01  0.0000000E+00  0.2000000E-01  0.9987743E-05  0.9999900E+00
  0.9500000E-01  0.0000000E+00  0.2000000E-01  0.9986746E-05  0.9999900E+00
  0.1000000E+00  0.0000000E+00  0.2000000E-01  0.9982280E-05  0.9999900E+00
  0.0000000E+00  0.0000000E+00  0.2500000E-01  0.2240876E-05  0.9999978E+00
  0.5000000E-02  0.0000000E+00  0.2500000E-01  0.2240869E-05  0.9999978E+00
  0.1000000E-01  0.0000000E+00  0.2500000E-01  0.2243128E-05  0.9999978E+00
  0.1500000E-01  0.0000000E+00  0.2500000E-01  0.2285945E-05  0.9999977E+00
  0.2000000E-01  0.0000000E+00  0.2500000E-01  0.2969848E-05  0.9999970E+00
  0.2500000E-01  0.0000000E+00  0.2500000E-01  0.9799395E-05  0.9999902E+00
  0.3000000E-01  0.0000000E+00  0.2500000E-01  0.9988591E-05  0.9999900E+00
  0.3500000E-01  0.0000000E+00  0.2500000E-01  0.9992911E-05  0.9999900E+00
  0.4000000E-01  0.0000000E+00  0.2500000E-01  0.9993045E-05  0.9999900E+00
  0.4500000E-01  0.0000000E+00  0.2500000E-01  0.9992779E-05  0.9999900E+00
  0.5000000E-01  0.0000000E+00  0.2500000E-01  0.9991763E-05  0.9999900E+00
  0.5500000E-01  0.0000000E+00  0.2500000E-01  0.9990693E-05  0.9999900E+00
  0.6000000E-01  0.0000000E+00  0.2500000E-01  0.9991349E-05  0.9999900E+00
  0.6500000E-01  0.0000000E+00  0.2500000E-01  0.9993524E-05  0.9999900E+00
  0.7000000E-01  0.0000000E+00  0.2500000E-01  0.9993295E-05  0.9999900E+00
  0.7500000E-01  0.0000000E+00  0.2500000E-01  0.9989638E-05  0.9999900E+00
  0.8000000E-01  0.0000000E+00  0.2500000E-01  0.9989107E-05  0.9999900E+00
  0.8500000E-01  0.0000000E+00  0.2500000E-01  0.9992550E-05  0.9999900E+00
  0.9000000E-01  0.0000000E+00  0.2500000E-01  0.9993798E-05  0.9999900E+00
  0.9500000E-01  0.0000000E+00  0.2500000E-01  0.9995547E-05  0.9999900E+00
  0.1000000E+00  0.0000000E+00  0.2500000E-01  0.9984033E-05  0.9999900E+00
  0.0000000E+00  0.0000000E+00  0.3000000E-01  0.3914695E-05  0.9999961E+00
  0.5000000E-02  0.0000000E+00  0.3000000E-01  0.3915125E-05  0.9999961E+00
  0.1000000E-01  0.0000000E+00  0.3000000E-01  0.3918847E-05  0.9999961E+00
  0.1500000E-01  0.0000000E+00  0.3000000E-01  0.3984774E-05  0.9999960E+00
  0.2000000E-01  0.0000000E+00  0.3000000E-01  0.4901253E-05  0.9999951E+00
  0.2500000E-01  0.0000000E+00  0.3000000E-01  0.9901018E-05  0.9999901E+00
  0.3000000E-01  0.0000000E+00  0.3000000E-01  0.9993592E-05  0.9999900E+00
  0.3500000E-01  0.0000000E+00  0.3000000E-01  0.9995159E-05  0.9999900E+00
  0.4000000E-01  0.0000000E+00  0.3000000E-01  0.9995426E-05  0.9999900E+00
  0.4500000E-01  0.0000000E+00  0.3000000E-01  0.9996072E-05  0.9999900E+00
  0.5000000E-01  0.0000000E+00  0.3000000E-01  0.9996002E-05  0.9999900E+00
  0.5500000E-01  0.0000000E+00  0.3000000E-01  0.9994047E-05  0.9999900E+00
  0.6000000E-01  0.0000000E+00  0.3000000E-01  0.9991933E-05  0.9999900E+00
  0.6500000E-01  0.0000000E+00  0.3000000E-01  0.9993429E-05  0.9999900E+00
  0.7000000E-01  0.0000000E+00  0.3000000E-01  0.9996914E-05  0.9999900E+00
  0.7500000E-01  0.0000000E+00  0.3000000E-01  0.9995277E-05  0.9999900E+00
  0.8000000E-01  0.0000000E+00  0.3000000E-01  0.9990596E-05  0.9999900E+00
  0.8500000E-01  0.0000000E+00  0.3000000E-01  0.9990107E-05  0.9999900E+00
  0.9000000E-01  0.0000000E+00  0.3000000E-01  0.9991282E-05  0.9999900E+00
  0.9500000E-01  0.0000000E+00  0.3000000E-01  0.9999054E-05  0.9999900E+00
  0.1000000E+00  0.0000000E+00  0.3000000E-01  0.9992872E-05  0.9999900E+00
  0.0000000E+00  0.0000000E+00  0.3500000E-01  0.5811638E-05  0.9999942E+00
  0.5000000E-02  0.0000000E+00  0.3500000E-01  0.5812209E-05  0.9999942E+00
  0.1000000E-01  0.0000000E+00  0.3500000E-01  0.5816670E-05  0.9999942E+00
  0.1500000E-01  0.0000000E+00  0.3500000E-01  0.5890510E-05  0.9999941E+00
  0.2000000E-01  0.0000000E+00  0.3500000E-01  0.6736312E-05  0.9999933E+00
  0.2500000E-01  0.0000000E+00  0.3500000E-01  0.9979304E-05  0.9999900E+00
  0.3000000E-01  0.0000000E+00  0.3500000E-01  0.9997412E-05  0.9999900E+00
  0.3500000E-01  0.0000000E+00  0.3500000E-01  0.9995871E-05  0.9999900E+00
  0.4000000E-01  0.0000000E+00  0.3500000E-01  0.9995163E-05  0.9999900E+00
  0.4500000E-01  0.0000000E+00  0.3500000E-01  0.9995622E-05  0.9999900E+00
  0.5000000E-01  0.0000000E+00  0.3500000E-01  0.9997363E-05  0.9999900E+00
  0.5500000E-01  0.0000000E+00  0.3500000E-01  0.9997736E-05  0.9999900E+00
  0.6000000E-01  0.0000000E+00  0.3500000E-01  0.9994421E-05  0.9999900E+00
  0.6500000E-01  0.0000000E+00  0.3500000E-01  0.9991489E-05  0.9999900E+00
  0.7000000E-01  0.0000000E+00  0.3500000E-01  0.9994815E-05  0.9999900E+00
  0.7500000E-01  0.0000000E+00  0.3500000E-01  0.9999032E-05  0.9999900E+00
  0.8000000E-01  0.0000000E+00  0.3500000E-01  0.9997065E-05  0.9999900E+00
  0.8500000E-01  0.0000000E+00  0.3500000E-01  0.9993362E-05  0.9999900E+00
  0.9000000E-01  0.0000000E+00  0.3500000E-01  0.9987816E-05  0.9999900E+00
  0.9500000E-01  0.0000000E+00  0.3500000E-01  0.9994346E-05  0.9999900E+00
  0.1000000E+00  0.0000000E+00  0.3500000E-01  0.9999333E-05  0.9999900E+00
  0.0000000E+00  0.0000000E+00  0.4000000E-01  0.7427534E-05  0.9999926E+00
  0.5000000E-02  0.0000000E+00  0.4000000E-01  0.7428093E-05  0.9999926E+00
  0.1000000E-01  0.0000000E+00  0.4000000E-01  0.7431183E-05  0.9999926E+00
  0.1500000E-01  0.0000000E+00  0.4000000E-01  0.7488552E-05  0.9999925E+00
  0.2000000E-01  0.0000000E+00  0.4000000E-01  0.8113953E-05  0.9999919E+00
  0.2500000E-01  0.0000000E+00  0.4000000E-01  0.1003397E-04  0.9999900E+00
  0.3000000E-01  0.0000000E+00  0.4000000E-01  0.1000178E-04  0.9999900E+00
  0.3500000E-01  0.0000000E+00  0.4000000E-01  0.9998384E-05  0.9999900E+00
  0.4000000E-01  0.0000000E+00  0.4000000E-01  0.9996830E-05  0.9999900E+00
  0.4500000E-01  0.0000000E+00  0.4000000E-01  0.9995102E-05  0.9999900E+00
  0.5000000E-01  0.0000000E+00  0.4000000E-01  0.9995733E-05  0.9999900E+00
  0.5500000E-01  0.0000000E+00  0.4000000E-01  0.9998912E-05  0.9999900E+00
  0.6000000E-01  0.0000000E+00  0.4000000E-01  0.9999335E-05  0.9999900E+00
  0.6500000E-01  0.0000000E+00  0.4000000E-01  0.9993980E-05  0.9999900E+00
  0.7000000E-01  0.0000000E+00  0.4000000E-01  0.9990815E-05  0.9999900E+00
  0.7500000E-01  0.0000000E+00  0.4000000E-01  0.9994847E-05  0.9999900E+00
  0.8000000E-01  0.0000000E+00  0.4000000E-01  0.9998688E-05  0.9999900E+00
  0.8500000E-01  0.0000000E+00  0.4000000E-01  0.1000007E-04  0.9999900E+00
  0.9000000E-01  0.0000000E+00  0.4000000E-01  0.9991521E-05  0.9999900E+00
  0.9500000E-01  0.0000000E+00  0.4000000E-01  0.9990515E-05  0.9999900E+00
  0.1000000E+00  0.0000000E+00  0.4000000E-01  0.9998476E-05  0.9999900E+00
  0.0000000E+00  0.0000000E+00  0.4500000E-01  0.8544811E-05  0.9999915E+00
  0.5000000E-02  0.0000000E+00  0.4500000E-01  0.8545844E-05  0.9999915E+00
  0.1000000E-01  0.0000000E+00  0.4500000E-01  0.8547848E-05  0.9999915E+00
  0.1500000E-01  0.0000000E+00  0.4500000E-01  0.8585840E-05  0.9999914E+00
  0.2000000E-01  0.0000000E+00  0.4500000E-01  0.9001475E-05  0.9999910E+00
  0.2500000E-01  0.0000000E+00  0.4500000E-01  0.1006633E-04  0.9999899E+00
  0.3000000E-01  0.0000000E+00  0.4500000E-01  0.1000334E-04  0.9999900E+00
  0.3500000E-01  0.0000000E+00  0.4500000E-01  0.9999373E-05  0.9999900E+00
  0.4000000E-01  0.0000000E+00  0.4500000E-01  0.9999352E-05  0.9999900E+00
  0.4500000E-01  0.0000000E+00  0.4500000E-01  0.9997026E-05  0.9999900E+00
  0.5000000E-01  0.0000000E+00  0.4500000E-01  0.9994053E-05  0.9999900E+00
  0.5500000E-01  0.0000000E+00  0.4500000E-01  0.9995307E-05  0.9999900E+00
  0.6000000E-01  0.0000000E+00  0.4500000E-01  0.1000030E-04  0.9999900E+00
  0.6500000E-01  0.0000000E+00  0.4500000E-01  0.1000031E-04  0.9999900E+00
  0.7000000E-01  0.0000000E+00  0.4500000E-01  0.9994086E-05  0.9999900E+00
  0.7500000E-01  0.0000000E+00  0.4500000E-01  0.9991333E-05  0.9999900E+00
  0.8000000E-01  0.0000000E+00  0.4500000E-01  0.9993444E-05  0.9999900E+00
  0.8500000E-01  0.0000000E+00  0.4500000E-01  0.1000082E-04  0.9999900E+00
  0.9000000E-01  0.0000000E+00  0.4500000E-01  0.9997416E-05  0.9999900E+00
  0.9500000E-01  0.0000000E+00  0.4500000E-01  0.9992153E-05  0.9999900E+00
  0.1000000E+00  0.0000000E+00  0.4500000E-01  0.9995075E-05  0.9999900E+00
  0.0000000E+00  0.0000000E+00  0.5000000E-01  0.9228776E-05  0.9999908E+00
  0.5000000E-02  0.0000000E+00  0.5000000E-01  0.9229563E-05  0.9999908E+00
  0.1000000E-01  0.0000000E+00  0.5000000E-01  0.9231002E-05  0.9999908E+00
  0.1500000E-01  0.0000000E+00  0.5000000E-01  0.9254804E-05  0.9999907E+00
  0.2000000E-01  0.0000000E+00  0.5000000E-01  0.9522891E-05  0.9999905E+00
  0.2500000E-01  0.0000000E+00  0.5000000E-01  0.1008443E-04  0.9999899E+00
  0.3000000E-01  0.0000000E+00  0.5000000E-01  0.1000394E-04  0.9999900E+00
  0.3500000E-01  0.0000000E+00  0.5000000E-01  0.9998081E-05  0.9999900E+00
  0.4000000E-01  0.0000000E+00  0.5000000E-01  0.9999843E-05  0.9999900E+00
  0.4500000E-01  0.0000000E+00  0.5000000E-01  0.1000057E-04  0.9999900E+00
  0.5000000E-01  0.0000000E+00  0.5000000E-01  0.9997087E-05  0.9999900E+00
  0.5500000E-01  0.0000000E+00  0.5000000E-01  0.9992816E-05  0.9999900E+00
  0.6000000E-01  0.0000000E+00  0.5000000E-01  0.9995009E-05  0.9999900E+00
  0.6500000E-01  0.0000000E+00  0.5000000E-01  0.1000068E-04  0.9999900E+00
  0.7000000E-01  0.0000000E+00  0.5000000E-01  0.1000003E-04  0.9999900E+00
  0.7500000E-01  0.0000000E+00  0.5000000E-01  0.9995043E-05  0.9999900E+00
  0.8000000E-01  0.0000000E+00  0.5000000E-01  0.9990405E-05  0.9999900E+00
  0.8500000E-01  0.0000000E+00  0.5000000E-01  0.9996417E-05  0.9999900E+00
  0.9000000E-01  0.0000000E+00  0.5000000E-01  0.9999026E-05  0.9999900E+00
  0.9500000E-01  0.0000000E+00  0.5000000E-01  0.9995540E-05  0.9999900E+00
  0.1000000E+00  0.0000000E+00  0.5000000E-01  0.9993926E-05  0.9999900E+00
  0.0000000E+00  0.0000000E+00  0.5500000E-01  0.9617474E-05  0.9999904E+00
  0.5000000E-02  0.0000000E+00  0.5500000E-01  0.9617852E-05  0.9999904E+00
  0.1000000E-01  0.0000000E+00  0.5500000E-01  0.9618946E-05  0.9999904E+00
  0.1500000E-01  0.0000000E+00  0.5500000E-01  0.9634290E-05  0.9999904E+00
  0.2000000E-01  0.0000000E+00  0.5500000E-01  0.9811503E-05  0.9999902E+00
  0.2500000E-01  0.0000000E+00  0.5500000E-01  0.1009346E-04  0.9999899E+00
  0.3000000E-01  0.0000000E+00  0.5500000E-01  0.1000595E-04  0.9999900E+00
  0.3500000E-01  0.0000000E+00  0.5500000E-01  0.9996915E-05  0.9999900E+00
  0.4000000E-01  0.0000000E+00  0.5500000E-01  0.9997075E-05  0.9999900E+00
  0.4500000E-01  0.0000000E+00  0.5500000E-01  0.1000028E-04  0.9999900E+00
  0.5000000E-01  0.0000000E+00  0.5500000E-01  0.1000158E-04  0.9999900E+00
  0.5500000E-01  0.0000000E+00  0.5500000E-01  0.9996910E-05  0.9999900E+00
  0.6000000E-01  0.0000000E+00  0.5500000E-01  0.9992446E-05  0.9999900E+00
  0.6500000E-01  0.0000000E+00  0.5500000E-01  0.9995476E-05  0.9999900E+00
  0.7000000E-01  0.0000000E+00  0.5500000E-01  0.1000006E-04  0.9999900E+00
  0.7500000E-01  0.0000000E+00  0.5500000E-01  0.1000018E-04  0.9999900E+00
  0.8000000E-01  0.0000000E+00  0.5500000E-01  0.9993143E-05  0.9999900E+00
  0.8500000E-01  0.0000000E+00  0.5500000E-01  0.9993548E-05  0.9999900E+00
  0.9000000E-01  0.0000000E+00  0.5500000E-01  0.9997232E-05  0.9999900E+00
  0.9500000E-01  0.0000000E+00  0.5500000E-01  0.9997057E-05  0.9999900E+00
  0.1000000E+00  0.0000000E+00  0.5500000E-01  0.9995071E-05  0.9999900E+00
  0.0000000E+00  0.0000000E+00  0.6000000E-01  0.9829784E-05  0.9999902E+00
  0.5000000E-02  0.0000000E+00  0.6000000E-01  0.9829496E-05  0.9999902E+00
  0.1000000E-01  0.0000000E+00  0.6000000E-01  0.9829933E-05  0.9999902E+00
  0.1500000E-01  0.0000000E+00  0.6000000E-01  0.9840244E-05  0.9999902E+00
  0.2000000E-01  0.0000000E+00  0.6000000E-01  0.9963341E-05  0.9999900E+00
  0.2500000E-01  0.0000000E+00  0.6000000E-01  0.1009503E-04  0.9999899E+00
  0.3000000E-01  0.0000000E+00  0.6000000E-01  0.1000886E-04  0.9999900E+00
  0.3500000E-01  0.0000000E+00  0.6000000E-01  0.9998999E-05  0.9999900E+00
  0.4000000E-01  0.0000000E+00  0.6000000E-01  0.9995887E-05  0.9999900E+00
  0.4500000E-01  0.0000000E+00  0.6000000E-01  0.9996401E-05  0.9999900E+00
  0.5000000E-01  0.0000000E+00  0.6000000E-01  0.1000068E-04  0.9999900E+00
  0.5500000E-01  0.0000000E+00  0.6000000E-01  0.1000169E-04  0.9999900E+00
  0.6000000E-01  0.0000000E+00  0.6000000E-01  0.9996401E-05  0.9999900E+00
  0.6500000E-01  0.0000000E+00  0.6000000E-01  0.9993239E-05  0.9999900E+00
  0.7000000E-01  0.0000000E+00  0.6000000E-01  0.9995987E-05  0.9999900E+00
  0.7500000E-01  0.0000000E+00  0.6000000E-01  0.1000085E-04  0.9999900E+00
  0.8000000E-01  0.0000000E+00  0.6000000E-01  0.9997227E-05  0.9999900E+00
  0.8500000E-01  0.0000000E+00  0.6000000E-01  0.9994377E-05  0.9999900E+00
  0.9000000E-01  0.0000000E+00  0.6000000E-01  0.9995796E-05  0.9999900E+00
  0.9500000E-01  0.0000000E+00  0.6000000E-01  0.9996939E-05  0.9999900E+00
  0.1000000E+00  0.0000000E+00  0.6000000E-01  0.9996631E-05  0.9999900E+00
  0.0000000E+00  0.0000000E+00  0.6500000E-01  0.9942706E-05  0.9999901E+00
  0.5000000E-02  0.0000000E+00  0.6500000E-01  0.9942693E-05  0.9999901E+00
  0.1000000E-01  0.0000000E+00  0.6500000E-01  0.9942669E-05  0.9999901E+00
  0.1500000E-01  0.0000000E+00  0.6500000E-01  0.9949849E-05  0.9999901E+00
  0.2000000E-01  0.0000000E+00  0.6500000E-01  0.1003964E-04  0.9999900E+00
  0.2500000E-01  0.0000000E+00  0.6500000E-01  0.1009068E-04  0.9999899E+00
  0.3000000E-01  0.0000000E+00  0.6500000E-01  0.1000925E-04  0.9999900E+00
  0.3500000E-01  0.0000000E+00  0.6500000E-01  0.1000169E-04  0.9999900E+00
  0.4000000E-01  0.0000000E+00  0.6500000E-01  0.9998865E-05  0.9999900E+00
  0.4500000E-01  0.0000000E+00  0.6500000E-01  0.9995405E-05  0.9999900E+00
  0.5000000E-01  0.0000000E+00  0.6500000E-01  0.9996569E-05  0.9999900E+00
  0.5500000E-01  0.0000000E+00  0.6500000E-01  0.1000111E-04  0.9999900E+00
  0.6000000E-01  0.0000000E+00  0.6500000E-01  0.1000086E-04  0.9999900E+00
  0.6500000E-01  0.0000000E+00  0.6500000E-01  0.9996198E-05  0.9999900E+00
  0.7000000E-01  0.0000000E+00  0.6500000E-01  0.9994051E-05  0.9999900E+00
  0.7500000E-01  0.0000000E+00  0.6500000E-01  0.9998545E-05  0.9999900E+00
  0.8000000E-01  0.0000000E+00  0.6500000E-01  0.9998964E-05  0.9999900E+00
  0.8500000E-01  0.0000000E+00  0.6500000E-01  0.9996610E-05  0.9999900E+00
  0.9000000E-01  0.0000000E+00  0.6500000E-01  0.9996112E-05  0.9999900E+00
  0.9500000E-01  0.0000000E+00  0.6500000E-01  0.9996818E-05  0.9999900E+00
  0.1000000E+00  0.0000000E+00  0.6500000E-01  0.9997750E-05  0.9999900E+00
  0.0000000E+00  0.0000000E+00  0.7000000E-01  0.1000059E-04  0.9999900E+00
  0.5000000E-02  0.0000000E+00  0.7000000E-01  0.1000146E-04  0.9999900E+00
  0.1000000E-01  0.0000000E+00  0.7000000E-01  0.1000189E-04  0.9999900E+00
  0.1500000E-01  0.0000000E+00  0.7000000E-01  0.1000784E-04  0.9999900E+00
  0.2000000E-01  0.0000000E+00  0.7000000E-01  0.1007694E-04  0.9999899E+00
  0.2500000E-01  0.0000000E+00  0.7000000E-01  0.1008484E-04  0.9999899E+00
  0.3000000E-01  0.0000000E+00  0.7000000E-01  0.1000744E-04  0.9999900E+00
  0.3500000E-01  0.0000000E+00  0.7000000E-01  0.1000118E-04  0.9999900E+00
  0.4000000E-01  0.0000000E+00  0.7000000E-01  0.1000175E-04  0.9999900E+00
  0.4500000E-01  0.0000000E+00  0.7000000E-01  0.9998679E-05  0.9999900E+00
  0.5000000E-01  0.0000000E+00  0.7000000E-01  0.9995521E-05  0.9999900E+00
  0.5500000E-01  0.0000000E+00  0.7000000E-01  0.9997764E-05  0.9999900E+00
  0.6000000E-01  0.0000000E+00  0.7000000E-01  0.1000129E-04  0.9999900E+00
  0.6500000E-01  0.0000000E+00  0.7000000E-01  0.9999955E-05  0.9999900E+00
  0.7000000E-01  0.0000000E+00  0.7000000E-01  0.9995765E-05  0.9999900E+00
  0.7500000E-01  0.0000000E+00  0.7000000E-01  0.9997132E-05  0.9999900E+00
  0.8000000E-01  0.0000000E+00  0.7000000E-01  0.9998869E-05  0.9999900E+00
  0.8500000E-01  0.0000000E+00  0.7000000E-01  0.9998244E-05  0.9999900E+00
  0.9000000E-01  0.0000000E+00  0.7000000E-01  0.9997412E-05  0.9999900E+00
  0.9500000E-01  0.0000000E+00  0.7000000E-01  0.9997440E-05  0.9999900E+00
  0.1000000E+00  0.0000000E+00  0.7000000E-01  0.9998714E-05  0.9999900E+00
  0.0000000E+00  0.0000000E+00  0.7500000E-01  0.1003009E-04  0.9999900E+00
  0.5000000E-02  0.0000000E+00  0.7500000E-01  0.1003055E-04  0.9999900E+00
  0.1000000E-01  0.0000000E+00  0.7500000E-01  0.1003136E-04  0.9999900E+00
  0.1500000E-01  0.0000000E+00  0.7500000E-01  0.1003714E-04  0.9999900E+00
  0.2000000E-01  0.0000000E+00  0.7500000E-01  0.1009342E-04  0.9999899E+00
  0.2500000E-01  0.0000000E+00  0.7500000E-01  0.1008019E-04  0.9999899E+00
  0.3000000E-01  0.0000000E+00  0.7500000E-01  0.1000697E-04  0.9999900E+00
  0.3500000E-01  0.0000000E+00  0.7500000E-01  0.9998998E-05  0.9999900E+00
  0.4000000E-01  0.0000000E+00  0.7500000E-01  0.1000126E-04  0.9999900E+00
  0.4500000E-01  0.0000000E+00  0.7500000E-01  0.1000176E-04  0.9999900E+00
  0.5000000E-01  0.0000000E+00  0.7500000E-01  0.9998320E-05  0.9999900E+00
  0.5500000E-01  0.0000000E+00  0.7500000E-01  0.9996620E-05  0.9999900E+00
  0.6000000E-01  0.0000000E+00  0.7500000E-01  0.9999459E-05  0.9999900E+00
  0.6500000E-01  0.0000000E+00  0.7500000E-01  0.1000141E-04  0.9999900E+00
  0.7000000E-01  0.0000000E+00  0.7500000E-01  0.9998649E-05  0.9999900E+00
  0.7500000E-01  0.0000000E+00  0.7500000E-01  0.9997851E-05  0.9999900E+00
  0.8000000E-01  0.0000000E+00  0.7500000E-01  0.9998878E-05  0.9999900E+00
  0.8500000E-01  0.0000000E+00  0.7500000E-01  0.9999222E-05  0.9999900E+00
  0.9000000E-01  0.0000000E+00  0.7500000E-01  0.9998859E-05  0.9999900E+00
  0.9500000E-01  0.0000000E+00  0.7500000E-01  0.9998668E-05  0.9999900E+00
  0.1000000E+00  0.0000000E+00  0.7500000E-01  0.9999992E-05  0.9999900E+00
  0.0000000E+00  0.0000000E+00  0.8000000E-01  0.1004557E-04  0.9999900E+00
  0.5000000E-02  0.0000000E+00  0.8000000E-01  0.1004495E-04  0.9999900E+00
  0.1000000E-01  0.0000000E+00  0.8000000E-01  0.1004527E-04  0.9999900E+00
  0.1500000E-01  0.0000000E+00  0.8000000E-01  0.1005048E-04  0.9999899E+00
  0.2000000E-01  0.0000000E+00  0.8000000E-01  0.1009753E-04  0.9999899E+00
  0.2500000E-01  0.0000000E+00  0.8000000E-01  0.1007546E-04  0.9999899E+00
  0.3000000E-01  0.0000000E+00  0.8000000E-01  0.1000866E-04  0.9999900E+00
  0.3500000E-01  0.0000000E+00  0.8000000E-01  0.9998641E-05  0.9999900E+00
  0.4000000E-01  0.0000000E+00  0.8000000E-01  0.9999337E-05  0.9999900E+00
  0.4500000E-01  0.0000000E+00  0.8000000E-01  0.1000200E-04  0.9999900E+00
  0.5000000E-01  0.0000000E+00  0.8000000E-01  0.1000143E-04  0.9999900E+00
  0.5500000E-01  0.0000000E+00  0.8000000E-01  0.9998500E-05  0.9999900E+00
  0.6000000E-01  0.0000000E+00  0.8000000E-01  0.9998712E-05  0.9999900E+00
  0.6500000E-01  0.0000000E+00  0.8000000E-01  0.1000128E-04  0.9999900E+00
  0.7000000E-01  0.0000000E+00  0.8000000E-01  0.1000075E-04  0.9999900E+00
  0.7500000E-01  0.0000000E+00  0.8000000E-01  0.9999732E-05  0.9999900E+00
  0.8000000E-01  0.0000000E+00  0.8000000E-01  0.9999862E-05  0.9999900E+00
  0.8500000E-01  0.0000000E+00  0.8000000E-01  0.1000028E-04  0.9999900E+00
  0.9000000E-01  0.0000000E+00  0.8000000E-01  0.1000033E-04  0.9999900E+00
  0.9500000E-01  0.0000000E+00  0.8000000E-01  0.1000025E-04  0.9999900E+00
  0.1000000E+00  0.0000000E+00  0.8000000E-01  0.1000178E-04  0.9999900E+00
  0.0000000E+00  0.0000000E+00  0.8500000E-01  0.1005276E-04  0.9999899E+00
  0.5000000E-02  0.0000000E+00  0.8500000E-01  0.1005235E-04  0.9999899E+00
  0.1000000E-01  0.0000000E+00  0.8500000E-01  0.1005210E-04  0.9999899E+00
  0.1500000E-01  0.0000000E+00  0.8500000E-01  0.1005624E-04  0.9999899E+00
  0.2000000E-01  0.0000000E+00  0.8500000E-01  0.1009510E-04  0.9999899E+00
  0.2500000E-01  0.0000000E+00  0.8500000E-01  0.1006931E-04  0.9999899E+00
  0.3000000E-01  0.0000000E+00  0.8500000E-01  0.1001034E-04  0.9999900E+00
  0.3500000E-01  0.0000000E+00  0.8500000E-01  0.1000047E-04  0.9999900E+00
  0.4000000E-01  0.0000000E+00  0.8500000E-01  0.9998984E-05  0.9999900E+00
  0.4500000E-01  0.0000000E+00  0.8500000E-01  0.1000089E-04  0.9999900E+00
  0.5000000E-01  0.0000000E+00  0.8500000E-01  0.1000272E-04  0.9999900E+00
  0.5500000E-01  0.0000000E+00  0.8500000E-01  0.1000124E-04  0.9999900E+00
  0.6000000E-01  0.0000000E+00  0.8500000E-01  0.9999960E-05  0.9999900E+00
  0.6500000E-01  0.0000000E+00  0.8500000E-01  0.1000146E-04  0.9999900E+00
  0.7000000E-01  0.0000000E+00  0.8500000E-01  0.1000211E-04  0.9999900E+00
  0.7500000E-01  0.0000000E+00  0.8500000E-01  0.1000179E-04  0.9999900E+00
  0.8000000E-01  0.0000000E+00  0.8500000E-01  0.1000165E-04  0.9999900E+00
  0.8500000E-01  0.0000000E+00  0.8500000E-01  0.1000188E-04  0.9999900E+00
  0.9000000E-01  0.0000000E+00  0.8500000E-01  0.1000207E-04  0.9999900E+00
  0.9500000E-01  0.0000000E+00  0.8500000E-01  0.1000216E-04  0.9999900E+00
  0.1000000E+00  0.0000000E+00  0.8500000E-01  0.1000409E-04  0.9999900E+00
  0.0000000E+00  0.0000000E+00  0.9000000E-01  0.1005477E-04  0.9999899E+00
  0.5000000E-02  0.0000000E+00  0.9000000E-01  0.1005554E-04  0.9999899E+00
  0.1000000E-01  0.0000000E+00  0.9000000E-01  0.1005547E-04  0.9999899E+00
  0.1500000E-01  0.0000000E+00  0.9000000E-01  0.1005891E-04  0.9999899E+00
  0.2000000E-01  0.0000000E+00  0.9000000E-01  0.1009058E-04  0.9999899E+00
  0.2500000E-01  0.0000000E+00  0.9000000E-01  0.1006263E-04  0.9999899E+00
  0.3000000E-01  0.0000000E+00  0.9000000E-01  0.1001059E-04  0.9999900E+00
  0.3500000E-01  0.0000000E+00  0.9000000E-01  0.1000254E-04  0.9999900E+00
  0.4000000E-01  0.0000000E+00  0.9000000E-01  0.1000059E-04  0.9999900E+00