title = "dataset het_2d"
variables = "x","y","z","pH","ionic strength", "C-Alk [eq/L]","NC-Alk [eq/L]","Alk [eq/L]","C-Alk [mg/L CaCO_3]","NC-Alk [mg/L CACO_3]","Alk [mg/L CaCO_3]","temperature"
zone t = "Master variables, T =  1.000E+01 days", i =   21, j =   41, k =    1,  f=point
  0.0000000E+00  0.0000000E+00  0.0000000E+00  0.5277287E+01  0.9239234E-05  0.0000000E+00  0.0000000E+00  0.0000000E+00  0.0000000E+00  0.0000000E+00  0.0000000E+00  0.2500000E+02
  0.5000000E-02  0.0000000E+00  0.0000000E+00  0.5277291E+01  0.9239237E-05  0.0000000E+00  0.0000000E+00  0.0000000E+00  0.0000000E+00  0.0000000E+00  0.0000000E+00  0.2500000E+02
  0.1000000E-01  0.0000000E+00  0.0000000E+00  0.5277655E+01  0.9251020E-05  0.0000000E+00  0.0000000E+00  0.0000000E+00  0.0000000E+00  0.0000000E+00  0.0000000E+00  0.2500000E+02
  0.1500000E-01  0.0000000E+00  0.0000000E+00  0.5285056E+01  0.9487152E-05  0.0000000E+00  0.0000000E+00  0.0000000E+00  0.0000000E+00  0.0000000E+00  0.0000000E+00  0.2500000E+02
  0.2000000E-01  0.0000000E+00  0.0000000E+00  0.5461047E+01  0.1579475E-04  0.0000000E+00  0.0000000E+00  0.0000000E+00  0.0000000E+00  0.0000000E+00  0.0000000E+00  0.2500000E+02
  0.2500000E-01  0.0000000E+00  0.0000000E+00  0.9914152E+01  0.3920661E-03  0.0000000E+00  0.0000000E+00  0.0000000E+00  0.0000000E+00  0.0000000E+00  0.0000000E+00  0.2500000E+02
  0.3000000E-01  0.0000000E+00  0.0000000E+00  0.9914152E+01  0.3920661E-03  0.0000000E+00  0.0000000E+00  0.0000000E+00  0.0000000E+00  0.0000000E+00  0.0000000E+00  0.2500000E+02
  0.3500000E-01  0.0000000E+00  0.0000000E+00  0.9914152E+01  0.3920661E-03  0.0000000E+00  0.0000000E+00  0.0000000E+00  0.0000000E+00  0.0000000E+00  0.0000000E+00  0.2500000E+02
  0.4000000E-01  0.0000000E+00  0.0000000E+00  0.9914152E+01  0.3920661E-03  0.0000000E+00  0.0000000E+00  0.0000000E+00  0.0000000E+00  0.0000000E+00  0.0000000E+00  0.2500000E+02
  0.4500000E-01  0.0000000E+00  0.0000000E+00  0.9914152E+01  0.3920661E-03  0.0000000E+00  0.0000000E+00  0.0000000E+00  0.0000000E+00  0.0000000E+00  0.0000000E+00  0.2500000E+02
  0.5000000E-01  0.0000000E+00  0.0000000E+00  0.9914152E+01  0.3920661E-03  0.0000000E+00  0.0000000E+00  0.0000000E+00  0.0000000E+00  0.0000000E+00  0.0000000E+00  0.2500000E+02
  0.5500000E-01  0.0000000E+00  0.0000000E+00  0.9914152E+01  0.3920661E-03  0.0000000E+00  0.0000000E+00  0.0000000E+00  0.0000000E+00  0.0000000E+00  0.0000000E+00  0.2500000E+02
  0.6000000E-01  0.0000000E+00  0.0000000E+00  0.9914152E+01  0.3920661E-03  0.0000000E+00  0.0000000E+00  0.0000000E+00  0.0000000E+00  0.0000000E+00  0.0000000E+00  0.2500000E+02
  0.6500000E-01  0.0000000E+00  0.0000000E+00  0.9914152E+01  0.3920661E-03  0.0000000E+00  0.0000000E+00  0.0000000E+00  0.0000000E+00  0.0000000E+00  0.0000000E+00  0.2500000E+02
  0.7000000E-01  0.0000000E+00  0.0000000E+00  0.9914152E+01  0.3920661E-03  0.0000000E+00  0.0000000E+00  0.0000000E+00  0.0000000E+00  0.0000000E+00  0.0000000E+00  0.2500000E+02
  0.7500000E-01  0.0000000E+00  0.0000000E+00  0.9914152E+01  0.3920661E-03  0.0000000E+00  0.0000000E+00  0.0000000E+00  0.0000000E+00  0.0000000E+00  0.0000000E+00  0.2500000E+02
  0.8000000E-01  0.0000000E+00  0.0000000E+00  0.9914152E+01  0.3920661E-03  0.0000000E+00  0.0000000E+00  0.0000000E+00  0.0000000E+00  0.0000000E+00  0.0000000E+00  0.2500000E+02
  0.8500000E-01  0.0000000E+00  0.0000000E+00  0.9914152E+01  0.3920661E-03  0.0000000E+00  0.0000000E+00  0.0000000E+00  0.0000000E+00  0.0000000E+00  0.0000000E+00  0.2500000E+02
  0.9000000E-01  0.0000000E+00  0.0000000E+00  0.9914152E+01  0.3920661E-03  0.0000000E+00  0.0000000E+00  0.0000000E+00  0.0000000E+00  0.0000000E+00  0.0000000E+00  0.2500000E+02
  0.9500000E-01  0.0000000E+00  0.0000000E+00  0.9914152E+01  0.3920661E-03  0.0000000E+00  0.0000000E+00  0.0000000E+00  0.0000000E+00  0.0000000E+00  0.0000000E+00  0.2500000E+02
  0.1000000E+00  0.0000000E+00  0.0000000E+00  0.9914152E+01  0.3920661E-03  0.0000000E+00  0.0000000E+00  0.0000000E+00  0.0000000E+00  0.0000000E+00  0.0000000E+00  0.2500000E+02
  0.0000000E+00  0.0000000E+00  0.5000000E-02  0.5427772E+01  0.1480057E-04  0.0000000E+00  0.0000000E+00  0.0000000E+00  0.0000000E+00  0.0000000E+00  0.0000000E+00  0.2500000E+02
  0.5000000E-02  0.0000000E+00  0.5000000E-02  0.5427778E+01  0.1480033E-04  0.0000000E+00  0.0000000E+00  0.0000000E+00  0.0000000E+00  0.0000000E+00  0.0000000E+00  0.2500000E+02
  0.1000000E-01  0.0000000E+00  0.5000000E-02  0.5428619E+01  0.1483435E-04  0.0000000E+00  0.0000000E+00  0.0000000E+00  0.0000000E+00  0.0000000E+00  0.0000000E+00  0.2500000E+02
  0.1500000E-01  0.0000000E+00  0.5000000E-02  0.5444902E+01  0.1548178E-04  0.0000000E+00  0.0000000E+00  0.0000000E+00  0.0000000E+00  0.0000000E+00  0.0000000E+00  0.2500000E+02
  0.2000000E-01  0.0000000E+00  0.5000000E-02  0.5728869E+01  0.2954523E-04  0.0000000E+00  0.0000000E+00  0.0000000E+00  0.0000000E+00  0.0000000E+00  0.0000000E+00  0.2500000E+02
  0.2500000E-01  0.0000000E+00  0.5000000E-02  0.9899266E+01  0.3878740E-03  0.0000000E+00  0.0000000E+00  0.0000000E+00  0.0000000E+00  0.0000000E+00  0.0000000E+00  0.2500000E+02
  0.3000000E-01  0.0000000E+00  0.5000000E-02  0.9913935E+01  0.3922659E-03  0.0000000E+00  0.0000000E+00  0.0000000E+00  0.0000000E+00  0.0000000E+00  0.0000000E+00  0.2500000E+02
  0.3500000E-01  0.0000000E+00  0.5000000E-02  0.9914341E+01  0.3923236E-03  0.0000000E+00  0.0000000E+00  0.0000000E+00  0.0000000E+00  0.0000000E+00  0.0000000E+00  0.2500000E+02
  0.4000000E-01  0.0000000E+00  0.5000000E-02  0.9914358E+01  0.3923249E-03  0.0000000E+00  0.0000000E+00  0.0000000E+00  0.0000000E+00  0.0000000E+00  0.0000000E+00  0.2500000E+02
  0.4500000E-01  0.0000000E+00  0.5000000E-02  0.9914358E+01  0.3923246E-03  0.0000000E+00  0.0000000E+00  0.0000000E+00  0.0000000E+00  0.0000000E+00  0.0000000E+00  0.2500000E+02
  0.5000000E-01  0.0000000E+00  0.5000000E-02  0.9914358E+01  0.3923242E-03  0.0000000E+00  0.0000000E+00  0.0000000E+00  0.0000000E+00  0.0000000E+00  0.0000000E+00  0.2500000E+02
  0.5500000E-01  0.0000000E+00  0.5000000E-02  0.9914358E+01  0.3923237E-03  0.0000000E+00  0.0000000E+00  0.0000000E+00  0.0000000E+00  0.0000000E+00  0.0000000E+00  0.2500000E+02
  0.6000000E-01  0.0000000E+00  0.5000000E-02  0.9914357E+01  0.3923233E-03  0.0000000E+00  0.0000000E+00  0.0000000E+00  0.0000000E+00  0.0000000E+00  0.0000000E+00  0.2500000E+02
  0.6500000E-01  0.0000000E+00  0.5000000E-02  0.9914358E+01  0.3923239E-03  0.0000000E+00  0.0000000E+00  0.0000000E+00  0.0000000E+00  0.0000000E+00  0.0000000E+00  0.2500000E+02
  0.7000000E-01  0.0000000E+00  0.5000000E-02  0.9914359E+01  0.3923254E-03  0.0000000E+00  0.0000000E+00  0.0000000E+00  0.0000000E+00  0.0000000E+00  0.0000000E+00  0.2500000E+02
  0.7500000E-01  0.0000000E+00  0.5000000E-02  0.9914359E+01  0.3923254E-03  0.0000000E+00  0.0000000E+00  0.0000000E+00  0.0000000E+00  0.0000000E+00  0.0000000E+00  0.2500000E+02
  0.8000000E-01  0.0000000E+00  0.5000000E-02  0.9914356E+01  0.3923218E-03  0.0000000E+00  0.0000000E+00  0.0000000E+00  0.0000000E+00  0.0000000E+00  0.0000000E+00  0.2500000E+02
  0.8500000E-01  0.0000000E+00  0.5000000E-02  0.9914354E+01  0.3923193E-03  0.0000000E+00  0.0000000E+00  0.0000000E+00  0.0000000E+00  0.0000000E+00  0.0000000E+00  0.2500000E+02
  0.9000000E-01  0.0000000E+00  0.5000000E-02  0.9914357E+01  0.3923229E-03  0.0000000E+00  0.0000000E+00  0.0000000E+00  0.0000000E+00  0.0000000E+00  0.0000000E+00  0.2500000E+02
  0.9500000E-01  0.0000000E+00  0.5000000E-02  0.9914359E+01  0.3923251E-03  0.0000000E+00  0.0000000E+00  0.0000000E+00  0.0000000E+00  0.0000000E+00  0.0000000E+00  0.2500000E+02
  0.1000000E+00  0.0000000E+00  0.5000000E-02  0.9914353E+01  0.3923180E-03  0.0000000E+00  0.0000000E+00  0.0000000E+00  0.0000000E+00  0.0000000E+00  0.0000000E+00  0.2500000E+02
  0.0000000E+00  0.0000000E+00  0.1000000E-01  0.5719014E+01  0.3031225E-04  0.0000000E+00  0.0000000E+00  0.0000000E+00  0.0000000E+00  0.0000000E+00  0.0000000E+00  0.2500000E+02
  0.5000000E-02  0.0000000E+00  0.1000000E-01  0.5719019E+01  0.3030970E-04  0.0000000E+00  0.0000000E+00  0.0000000E+00  0.0000000E+00  0.0000000E+00  0.0000000E+00  0.2500000E+02
  0.1000000E-01  0.0000000E+00  0.1000000E-01  0.5720169E+01  0.3038402E-04  0.0000000E+00  0.0000000E+00  0.0000000E+00  0.0000000E+00  0.0000000E+00  0.0000000E+00  0.2500000E+02
  0.1500000E-01  0.0000000E+00  0.1000000E-01  0.5741044E+01  0.3170535E-04  0.0000000E+00  0.0000000E+00  0.0000000E+00  0.0000000E+00  0.0000000E+00  0.0000000E+00  0.2500000E+02
  0.2000000E-01  0.0000000E+00  0.1000000E-01  0.6035228E+01  0.5434824E-04  0.0000000E+00  0.0000000E+00  0.0000000E+00  0.0000000E+00  0.0000000E+00  0.0000000E+00  0.2500000E+02
  0.2500000E-01  0.0000000E+00  0.1000000E-01  0.9886720E+01  0.3859348E-03  0.0000000E+00  0.0000000E+00  0.0000000E+00  0.0000000E+00  0.0000000E+00  0.0000000E+00  0.2500000E+02
  0.3000000E-01  0.0000000E+00  0.1000000E-01  0.9913418E+01  0.3923690E-03  0.0000000E+00  0.0000000E+00  0.0000000E+00  0.0000000E+00  0.0000000E+00  0.0000000E+00  0.2500000E+02
  0.3500000E-01  0.0000000E+00  0.1000000E-01  0.9914432E+01  0.3924760E-03  0.0000000E+00  0.0000000E+00  0.0000000E+00  0.0000000E+00  0.0000000E+00  0.0000000E+00  0.2500000E+02
  0.4000000E-01  0.0000000E+00  0.1000000E-01  0.9914479E+01  0.3924782E-03  0.0000000E+00  0.0000000E+00  0.0000000E+00  0.0000000E+00  0.0000000E+00  0.0000000E+00  0.2500000E+02
  0.4500000E-01  0.0000000E+00  0.1000000E-01  0.9914481E+01  0.3924780E-03  0.0000000E+00  0.0000000E+00  0.0000000E+00  0.0000000E+00  0.0000000E+00  0.0000000E+00  0.2500000E+02
  0.5000000E-01  0.0000000E+00  0.1000000E-01  0.9914481E+01  0.3924777E-03  0.0000000E+00  0.0000000E+00  0.0000000E+00  0.0000000E+00  0.0000000E+00  0.0000000E+00  0.2500000E+02
  0.5500000E-01  0.0000000E+00  0.1000000E-01  0.9914480E+01  0.3924769E-03  0.0000000E+00  0.0000000E+00  0.0000000E+00  0.0000000E+00  0.0000000E+00  0.0000000E+00  0.2500000E+02
  0.6000000E-01  0.0000000E+00  0.1000000E-01  0.9914478E+01  0.3924743E-03  0.0000000E+00  0.0000000E+00  0.0000000E+00  0.0000000E+00  0.0000000E+00  0.0000000E+00  0.2500000E+02
  0.6500000E-01  0.0000000E+00  0.1000000E-01  0.9914476E+01  0.3924718E-03  0.0000000E+00  0.0000000E+00  0.0000000E+00  0.0000000E+00  0.0000000E+00  0.0000000E+00  0.2500000E+02
  0.7000000E-01  0.0000000E+00  0.1000000E-01  0.9914478E+01  0.3924744E-03  0.0000000E+00  0.0000000E+00  0.0000000E+00  0.0000000E+00  0.0000000E+00  0.0000000E+00  0.2500000E+02
  0.7500000E-01  0.0000000E+00  0.1000000E-01  0.9914483E+01  0.3924811E-03  0.0000000E+00  0.0000000E+00  0.0000000E+00  0.0000000E+00  0.0000000E+00  0.0000000E+00  0.2500000E+02
  0.8000000E-01  0.0000000E+00  0.1000000E-01  0.9914483E+01  0.3924800E-03  0.0000000E+00  0.0000000E+00  0.0000000E+00  0.0000000E+00  0.0000000E+00  0.0000000E+00  0.2500000E+02
  0.8500000E-01  0.0000000E+00  0.1000000E-01  0.9914474E+01  0.3924695E-03  0.0000000E+00  0.0000000E+00  0.0000000E+00  0.0000000E+00  0.0000000E+00  0.0000000E+00  0.2500000E+02
  0.9000000E-01  0.0000000E+00  0.1000000E-01  0.9914475E+01  0.3924701E-03  0.0000000E+00  0.0000000E+00  0.0000000E+00  0.0000000E+00  0.0000000E+00  0.0000000E+00  0.2500000E+02
  0.9500000E-01  0.0000000E+00  0.1000000E-01  0.9914483E+01  0.3924810E-03  0.0000000E+00  0.0000000E+00  0.0000000E+00  0.0000000E+00  0.0000000E+00  0.0000000E+00  0.2500000E+02
  0.1000000E+00  0.0000000E+00  0.1000000E-01  0.9914483E+01  0.3924803E-03  0.0000000E+00  0.0000000E+00  0.0000000E+00  0.0000000E+00  0.0000000E+00  0.0000000E+00  0.2500000E+02
  0.0000000E+00  0.0000000E+00  0.1500000E-01  0.6149269E+01  0.7176618E-04  0.0000000E+00  0.0000000E+00  0.0000000E+00  0.0000000E+00  0.0000000E+00  0.0000000E+00  0.2500000E+02
  0.5000000E-02  0.0000000E+00  0.1500000E-01  0.6149292E+01  0.7175830E-04  0.0000000E+00  0.0000000E+00  0.0000000E+00  0.0000000E+00  0.0000000E+00  0.0000000E+00  0.2500000E+02
  0.1000000E-01  0.0000000E+00  0.1500000E-01  0.6150398E+01  0.7188182E-04  0.0000000E+00  0.0000000E+00  0.0000000E+00  0.0000000E+00  0.0000000E+00  0.0000000E+00  0.2500000E+02
  0.1500000E-01  0.0000000E+00  0.1500000E-01  0.6169804E+01  0.7399569E-04  0.0000000E+00  0.0000000E+00  0.0000000E+00  0.0000000E+00  0.0000000E+00  0.0000000E+00  0.2500000E+02
  0.2000000E-01  0.0000000E+00  0.1500000E-01  0.6433943E+01  0.1042336E-03  0.0000000E+00  0.0000000E+00  0.0000000E+00  0.0000000E+00  0.0000000E+00  0.0000000E+00  0.2500000E+02
  0.2500000E-01  0.0000000E+00  0.1500000E-01  0.9876151E+01  0.3856671E-03  0.0000000E+00  0.0000000E+00  0.0000000E+00  0.0000000E+00  0.0000000E+00  0.0000000E+00  0.2500000E+02
  0.3000000E-01  0.0000000E+00  0.1500000E-01  0.9912671E+01  0.3924325E-03  0.0000000E+00  0.0000000E+00  0.0000000E+00  0.0000000E+00  0.0000000E+00  0.0000000E+00  0.2500000E+02
  0.3500000E-01  0.0000000E+00  0.1500000E-01  0.9914454E+01  0.3925673E-03  0.0000000E+00  0.0000000E+00  0.0000000E+00  0.0000000E+00  0.0000000E+00  0.0000000E+00  0.2500000E+02
  0.4000000E-01  0.0000000E+00  0.1500000E-01  0.9914549E+01  0.3925695E-03  0.0000000E+00  0.0000000E+00  0.0000000E+00  0.0000000E+00  0.0000000E+00  0.0000000E+00  0.2500000E+02
  0.4500000E-01  0.0000000E+00  0.1500000E-01  0.9914553E+01  0.3925689E-03  0.0000000E+00  0.0000000E+00  0.0000000E+00  0.0000000E+00  0.0000000E+00  0.0000000E+00  0.2500000E+02
  0.5000000E-01  0.0000000E+00  0.1500000E-01  0.9914554E+01  0.3925694E-03  0.0000000E+00  0.0000000E+00  0.0000000E+00  0.0000000E+00  0.0000000E+00  0.0000000E+00  0.2500000E+02
  0.5500000E-01  0.0000000E+00  0.1500000E-01  0.9914556E+01  0.3925713E-03  0.0000000E+00  0.0000000E+00  0.0000000E+00  0.0000000E+00  0.0000000E+00  0.0000000E+00  0.2500000E+02
  0.6000000E-01  0.0000000E+00  0.1500000E-01  0.9914555E+01  0.3925704E-03  0.0000000E+00  0.0000000E+00  0.0000000E+00  0.0000000E+00  0.0000000E+00  0.0000000E+00  0.2500000E+02
  0.6500000E-01  0.0000000E+00  0.1500000E-01  0.9914548E+01  0.3925624E-03  0.0000000E+00  0.0000000E+00  0.0000000E+00  0.0000000E+00  0.0000000E+00  0.0000000E+00  0.2500000E+02
  0.7000000E-01  0.0000000E+00  0.1500000E-01  0.9914542E+01  0.3925548E-03  0.0000000E+00  0.0000000E+00  0.0000000E+00  0.0000000E+00  0.0000000E+00  0.0000000E+00  0.2500000E+02
  0.7500000E-01  0.0000000E+00  0.1500000E-01  0.9914548E+01  0.3925621E-03  0.0000000E+00  0.0000000E+00  0.0000000E+00  0.0000000E+00  0.0000000E+00  0.0000000E+00  0.2500000E+02
  0.8000000E-01  0.0000000E+00  0.1500000E-01  0.9914558E+01  0.3925746E-03  0.0000000E+00  0.0000000E+00  0.0000000E+00  0.0000000E+00  0.0000000E+00  0.0000000E+00  0.2500000E+02
  0.8500000E-01  0.0000000E+00  0.1500000E-01  0.9914550E+01  0.3925646E-03  0.0000000E+00  0.0000000E+00  0.0000000E+00  0.0000000E+00  0.0000000E+00  0.0000000E+00  0.2500000E+02
  0.9000000E-01  0.0000000E+00  0.1500000E-01  0.9914539E+01  0.3925499E-03  0.0000000E+00  0.0000000E+00  0.0000000E+00  0.0000000E+00  0.0000000E+00  0.0000000E+00  0.2500000E+02
  0.9500000E-01  0.0000000E+00  0.1500000E-01  0.9914546E+01  0.3925588E-03  0.0000000E+00  0.0000000E+00  0.0000000E+00  0.0000000E+00  0.0000000E+00  0.0000000E+00  0.2500000E+02
  0.1000000E+00  0.0000000E+00  0.1500000E-01  0.9914554E+01  0.3925694E-03  0.0000000E+00  0.0000000E+00  0.0000000E+00  0.0000000E+00  0.0000000E+00  0.0000000E+00  0.2500000E+02
  0.0000000E+00  0.0000000E+00  0.2000000E-01  0.6546331E+01  0.1327180E-03  0.0000000E+00  0.0000000E+00  0.0000000E+00  0.0000000E+00  0.0000000E+00  0.0000000E+00  0.2500000E+02
  0.5000000E-02  0.0000000E+00  0.2000000E-01  0.6546393E+01  0.1327086E-03  0.0000000E+00  0.0000000E+00  0.0000000E+00  0.0000000E+00  0.0000000E+00  0.0000000E+00  0.2500000E+02
  0.1000000E-01  0.0000000E+00  0.2000000E-01  0.6547628E+01  0.1328625E-03  0.0000000E+00  0.0000000E+00  0.0000000E+00  0.0000000E+00  0.0000000E+00  0.0000000E+00  0.2500000E+02
  0.1500000E-01  0.0000000E+00  0.2000000E-01  0.6568352E+01  0.1354251E-03  0.0000000E+00  0.0000000E+00  0.0000000E+00  0.0000000E+00  0.0000000E+00  0.0000000E+00  0.2500000E+02
  0.2000000E-01  0.0000000E+00  0.2000000E-01  0.6863147E+01  0.1682013E-03  0.0000000E+00  0.0000000E+00  0.0000000E+00  0.0000000E+00  0.0000000E+00  0.0000000E+00  0.2500000E+02
  0.2500000E-01  0.0000000E+00  0.2000000E-01  0.9867188E+01  0.3865704E-03  0.0000000E+00  0.0000000E+00  0.0000000E+00  0.0000000E+00  0.0000000E+00  0.0000000E+00  0.2500000E+02
  0.3000000E-01  0.0000000E+00  0.2000000E-01  0.9911742E+01  0.3924862E-03  0.0000000E+00  0.0000000E+00  0.0000000E+00  0.0000000E+00  0.0000000E+00  0.0000000E+00  0.2500000E+02
  0.3500000E-01  0.0000000E+00  0.2000000E-01  0.9914426E+01  0.3926226E-03  0.0000000E+00  0.0000000E+00  0.0000000E+00  0.0000000E+00  0.0000000E+00  0.0000000E+00  0.2500000E+02
  0.4000000E-01  0.0000000E+00  0.2000000E-01  0.9914587E+01  0.3926241E-03  0.0000000E+00  0.0000000E+00  0.0000000E+00  0.0000000E+00  0.0000000E+00  0.0000000E+00  0.2500000E+02
  0.4500000E-01  0.0000000E+00  0.2000000E-01  0.9914595E+01  0.3926212E-03  0.0000000E+00  0.0000000E+00  0.0000000E+00  0.0000000E+00  0.0000000E+00  0.0000000E+00  0.2500000E+02
  0.5000000E-01  0.0000000E+00  0.2000000E-01  0.9914593E+01  0.3926183E-03  0.0000000E+00  0.0000000E+00  0.0000000E+00  0.0000000E+00  0.0000000E+00  0.0000000E+00  0.2500000E+02
  0.5500000E-01  0.0000000E+00  0.2000000E-01  0.9914595E+01  0.3926209E-03  0.0000000E+00  0.0000000E+00  0.0000000E+00  0.0000000E+00  0.0000000E+00  0.0000000E+00  0.2500000E+02
  0.6000000E-01  0.0000000E+00  0.2000000E-01  0.9914602E+01  0.3926291E-03  0.0000000E+00  0.0000000E+00  0.0000000E+00  0.0000000E+00  0.0000000E+00  0.0000000E+00  0.2500000E+02
  0.6500000E-01  0.0000000E+00  0.2000000E-01  0.9914602E+01  0.3926296E-03  0.0000000E+00  0.0000000E+00  0.0000000E+00  0.0000000E+00  0.0000000E+00  0.0000000E+00  0.2500000E+02
  0.7000000E-01  0.0000000E+00  0.2000000E-01  0.9914589E+01  0.3926128E-03  0.0000000E+00  0.0000000E+00  0.0000000E+00  0.0000000E+00  0.0000000E+00  0.0000000E+00  0.2500000E+02
  0.7500000E-01  0.0000000E+00  0.2000000E-01  0.9914580E+01  0.3926023E-03  0.0000000E+00  0.0000000E+00  0.0000000E+00  0.0000000E+00  0.0000000E+00  0.0000000E+00  0.2500000E+02
  0.8000000E-01  0.0000000E+00  0.2000000E-01  0.9914596E+01  0.3926216E-03  0.0000000E+00  0.0000000E+00  0.0000000E+00  0.0000000E+00  0.0000000E+00  0.0000000E+00  0.2500000E+02
  0.8500000E-01  0.0000000E+00  0.2000000E-01  0.9914605E+01  0.3926330E-03  0.0000000E+00  0.0000000E+00  0.0000000E+00  0.0000000E+00  0.0000000E+00  0.0000000E+00  0.2500000E+02
  0.9000000E-01  0.0000000E+00  0.2000000E-01  0.9914590E+01  0.3926144E-03  0.0000000E+00  0.0000000E+00  0.0000000E+00  0.0000000E+00  0.0000000E+00  0.0000000E+00  0.2500000E+02
  0.9500000E-01  0.0000000E+00  0.2000000E-01  0.9914584E+01  0.3926064E-03  0.0000000E+00  0.0000000E+00  0.0000000E+00  0.0000000E+00  0.0000000E+00  0.0000000E+00  0.2500000E+02
  0.1000000E+00  0.0000000E+00  0.2000000E-01  0.9914555E+01  0.3925699E-03  0.0000000E+00  0.0000000E+00  0.0000000E+00  0.0000000E+00  0.0000000E+00  0.0000000E+00  0.2500000E+02
  0.0000000E+00  0.0000000E+00  0.2500000E-01  0.6982836E+01  0.2060078E-03  0.0000000E+00  0.0000000E+00  0.0000000E+00  0.0000000E+00  0.0000000E+00  0.0000000E+00  0.2500000E+02
  0.5000000E-02  0.0000000E+00  0.2500000E-01  0.6982983E+01  0.2059998E-03  0.0000000E+00  0.0000000E+00  0.0000000E+00  0.0000000E+00  0.0000000E+00  0.0000000E+00  0.2500000E+02
  0.1000000E-01  0.0000000E+00  0.2500000E-01  0.6984974E+01  0.2061569E-03  0.0000000E+00  0.0000000E+00  0.0000000E+00  0.0000000E+00  0.0000000E+00  0.0000000E+00  0.2500000E+02
  0.1500000E-01  0.0000000E+00  0.2500000E-01  0.7016643E+01  0.2088257E-03  0.0000000E+00  0.0000000E+00  0.0000000E+00  0.0000000E+00  0.0000000E+00  0.0000000E+00  0.2500000E+02
  0.2000000E-01  0.0000000E+00  0.2500000E-01  0.7582749E+01  0.2397752E-03  0.0000000E+00  0.0000000E+00  0.0000000E+00  0.0000000E+00  0.0000000E+00  0.0000000E+00  0.2500000E+02
  0.2500000E-01  0.0000000E+00  0.2500000E-01  0.9859464E+01  0.3882094E-03  0.0000000E+00  0.0000000E+00  0.0000000E+00  0.0000000E+00  0.0000000E+00  0.0000000E+00  0.2500000E+02
  0.3000000E-01  0.0000000E+00  0.2500000E-01  0.9910659E+01  0.3925398E-03  0.0000000E+00  0.0000000E+00  0.0000000E+00  0.0000000E+00  0.0000000E+00  0.0000000E+00  0.2500000E+02
  0.3500000E-01  0.0000000E+00  0.2500000E-01  0.9914357E+01  0.3926562E-03  0.0000000E+00  0.0000000E+00  0.0000000E+00  0.0000000E+00  0.0000000E+00  0.0000000E+00  0.2500000E+02
  0.4000000E-01  0.0000000E+00  0.2500000E-01  0.9914608E+01  0.3926592E-03  0.0000000E+00  0.0000000E+00  0.0000000E+00  0.0000000E+00  0.0000000E+00  0.0000000E+00  0.2500000E+02
  0.4500000E-01  0.0000000E+00  0.2500000E-01  0.9914623E+01  0.3926571E-03  0.0000000E+00  0.0000000E+00  0.0000000E+00  0.0000000E+00  0.0000000E+00  0.0000000E+00  0.2500000E+02
  0.5000000E-01  0.0000000E+00  0.2500000E-01  0.9914617E+01  0.3926488E-03  0.0000000E+00  0.0000000E+00  0.0000000E+00  0.0000000E+00  0.0000000E+00  0.0000000E+00  0.2500000E+02
  0.5500000E-01  0.0000000E+00  0.2500000E-01  0.9914611E+01  0.3926401E-03  0.0000000E+00  0.0000000E+00  0.0000000E+00  0.0000000E+00  0.0000000E+00  0.0000000E+00  0.2500000E+02
  0.6000000E-01  0.0000000E+00  0.2500000E-01  0.9914615E+01  0.3926454E-03  0.0000000E+00  0.0000000E+00  0.0000000E+00  0.0000000E+00  0.0000000E+00  0.0000000E+00  0.2500000E+02
  0.6500000E-01  0.0000000E+00  0.2500000E-01  0.9914629E+01  0.3926631E-03  0.0000000E+00  0.0000000E+00  0.0000000E+00  0.0000000E+00  0.0000000E+00  0.0000000E+00  0.2500000E+02
  0.7000000E-01  0.0000000E+00  0.2500000E-01  0.9914627E+01  0.3926611E-03  0.0000000E+00  0.0000000E+00  0.0000000E+00  0.0000000E+00  0.0000000E+00  0.0000000E+00  0.2500000E+02
  0.7500000E-01  0.0000000E+00  0.2500000E-01  0.9914604E+01  0.3926314E-03  0.0000000E+00  0.0000000E+00  0.0000000E+00  0.0000000E+00  0.0000000E+00  0.0000000E+00  0.2500000E+02
  0.8000000E-01  0.0000000E+00  0.2500000E-01  0.9914600E+01  0.3926271E-03  0.0000000E+00  0.0000000E+00  0.0000000E+00  0.0000000E+00  0.0000000E+00  0.0000000E+00  0.2500000E+02
  0.8500000E-01  0.0000000E+00  0.2500000E-01  0.9914623E+01  0.3926551E-03  0.0000000E+00  0.0000000E+00  0.0000000E+00  0.0000000E+00  0.0000000E+00  0.0000000E+00  0.2500000E+02
  0.9000000E-01  0.0000000E+00  0.2500000E-01  0.9914631E+01  0.3926651E-03  0.0000000E+00  0.0000000E+00  0.0000000E+00  0.0000000E+00  0.0000000E+00  0.0000000E+00  0.2500000E+02
  0.9500000E-01  0.0000000E+00  0.2500000E-01  0.9914642E+01  0.3926795E-03  0.0000000E+00  0.0000000E+00  0.0000000E+00  0.0000000E+00  0.0000000E+00  0.0000000E+00  0.2500000E+02
  0.1000000E+00  0.0000000E+00  0.2500000E-01  0.9914567E+01  0.3925855E-03  0.0000000E+00  0.0000000E+00  0.0000000E+00  0.0000000E+00  0.0000000E+00  0.0000000E+00  0.2500000E+02
  0.0000000E+00  0.0000000E+00  0.3000000E-01  0.7787880E+01  0.2840009E-03  0.0000000E+00  0.0000000E+00  0.0000000E+00  0.0000000E+00  0.0000000E+00  0.0000000E+00  0.2500000E+02
  0.5000000E-02  0.0000000E+00  0.3000000E-01  0.7788544E+01  0.2840002E-03  0.0000000E+00  0.0000000E+00  0.0000000E+00  0.0000000E+00  0.0000000E+00  0.0000000E+00  0.2500000E+02
  0.1000000E-01  0.0000000E+00  0.3000000E-01  0.7796015E+01  0.2841177E-03  0.0000000E+00  0.0000000E+00  0.0000000E+00  0.0000000E+00  0.0000000E+00  0.0000000E+00  0.2500000E+02
  0.1500000E-01  0.0000000E+00  0.3000000E-01  0.7911258E+01  0.2863392E-03  0.0000000E+00  0.0000000E+00  0.0000000E+00  0.0000000E+00  0.0000000E+00  0.0000000E+00  0.2500000E+02
  0.2000000E-01  0.0000000E+00  0.3000000E-01  0.8909795E+01  0.3130164E-03  0.0000000E+00  0.0000000E+00  0.0000000E+00  0.0000000E+00  0.0000000E+00  0.0000000E+00  0.2500000E+02
  0.2500000E-01  0.0000000E+00  0.3000000E-01  0.9852585E+01  0.3901572E-03  0.0000000E+00  0.0000000E+00  0.0000000E+00  0.0000000E+00  0.0000000E+00  0.0000000E+00  0.2500000E+02
  0.3000000E-01  0.0000000E+00  0.3000000E-01  0.9909445E+01  0.3925978E-03  0.0000000E+00  0.0000000E+00  0.0000000E+00  0.0000000E+00  0.0000000E+00  0.0000000E+00  0.2500000E+02
  0.3500000E-01  0.0000000E+00  0.3000000E-01  0.9914250E+01  0.3926758E-03  0.0000000E+00  0.0000000E+00  0.0000000E+00  0.0000000E+00  0.0000000E+00  0.0000000E+00  0.2500000E+02
  0.4000000E-01  0.0000000E+00  0.3000000E-01  0.9914615E+01  0.3926797E-03  0.0000000E+00  0.0000000E+00  0.0000000E+00  0.0000000E+00  0.0000000E+00  0.0000000E+00  0.2500000E+02
  0.4500000E-01  0.0000000E+00  0.3000000E-01  0.9914644E+01  0.3926850E-03  0.0000000E+00  0.0000000E+00  0.0000000E+00  0.0000000E+00  0.0000000E+00  0.0000000E+00  0.2500000E+02
  0.5000000E-01  0.0000000E+00  0.3000000E-01  0.9914646E+01  0.3926844E-03  0.0000000E+00  0.0000000E+00  0.0000000E+00  0.0000000E+00  0.0000000E+00  0.0000000E+00  0.2500000E+02
  0.5500000E-01  0.0000000E+00  0.3000000E-01  0.9914633E+01  0.3926684E-03  0.0000000E+00  0.0000000E+00  0.0000000E+00  0.0000000E+00  0.0000000E+00  0.0000000E+00  0.2500000E+02
  0.6000000E-01  0.0000000E+00  0.3000000E-01  0.9914620E+01  0.3926513E-03  0.0000000E+00  0.0000000E+00  0.0000000E+00  0.0000000E+00  0.0000000E+00  0.0000000E+00  0.2500000E+02
  0.6500000E-01  0.0000000E+00  0.3000000E-01  0.9914629E+01  0.3926634E-03  0.0000000E+00  0.0000000E+00  0.0000000E+00  0.0000000E+00  0.0000000E+00  0.0000000E+00  0.2500000E+02
  0.7000000E-01  0.0000000E+00  0.3000000E-01  0.9914652E+01  0.3926917E-03  0.0000000E+00  0.0000000E+00  0.0000000E+00  0.0000000E+00  0.0000000E+00  0.0000000E+00  0.2500000E+02
  0.7500000E-01  0.0000000E+00  0.3000000E-01  0.9914641E+01  0.3926783E-03  0.0000000E+00  0.0000000E+00  0.0000000E+00  0.0000000E+00  0.0000000E+00  0.0000000E+00  0.2500000E+02
  0.8000000E-01  0.0000000E+00  0.3000000E-01  0.9914611E+01  0.3926403E-03  0.0000000E+00  0.0000000E+00  0.0000000E+00  0.0000000E+00  0.0000000E+00  0.0000000E+00  0.2500000E+02
  0.8500000E-01  0.0000000E+00  0.3000000E-01  0.9914608E+01  0.3926364E-03  0.0000000E+00  0.0000000E+00  0.0000000E+00  0.0000000E+00  0.0000000E+00  0.0000000E+00  0.2500000E+02
  0.9000000E-01  0.0000000E+00  0.3000000E-01  0.9914615E+01  0.3926458E-03  0.0000000E+00  0.0000000E+00  0.0000000E+00  0.0000000E+00  0.0000000E+00  0.0000000E+00  0.2500000E+02
  0.9500000E-01  0.0000000E+00  0.3000000E-01  0.9914666E+01  0.3927092E-03  0.0000000E+00  0.0000000E+00  0.0000000E+00  0.0000000E+00  0.0000000E+00  0.0000000E+00  0.2500000E+02
  0.1000000E+00  0.0000000E+00  0.3000000E-01  0.9914625E+01  0.3926584E-03  0.0000000E+00  0.0000000E+00  0.0000000E+00  0.0000000E+00  0.0000000E+00  0.0000000E+00  0.2500000E+02
  0.0000000E+00  0.0000000E+00  0.3500000E-01  0.8917575E+01  0.3580638E-03  0.0000000E+00  0.0000000E+00  0.0000000E+00  0.0000000E+00  0.0000000E+00  0.0000000E+00  0.2500000E+02
  0.5000000E-02  0.0000000E+00  0.3500000E-01  0.8917870E+01  0.3580594E-03  0.0000000E+00  0.0000000E+00  0.0000000E+00  0.0000000E+00  0.0000000E+00  0.0000000E+00  0.2500000E+02
  0.1000000E-01  0.0000000E+00  0.3500000E-01  0.8921032E+01  0.3580833E-03  0.0000000E+00  0.0000000E+00  0.0000000E+00  0.0000000E+00  0.0000000E+00  0.0000000E+00  0.2500000E+02
  0.1500000E-01  0.0000000E+00  0.3500000E-01  0.8960487E+01  0.3591885E-03  0.0000000E+00  0.0000000E+00  0.0000000E+00  0.0000000E+00  0.0000000E+00  0.0000000E+00  0.2500000E+02
  0.2000000E-01  0.0000000E+00  0.3500000E-01  0.9229070E+01  0.3709490E-03  0.0000000E+00  0.0000000E+00  0.0000000E+00  0.0000000E+00  0.0000000E+00  0.0000000E+00  0.2500000E+02
  0.2500000E-01  0.0000000E+00  0.3500000E-01  0.9846173E+01  0.3920314E-03  0.0000000E+00  0.0000000E+00  0.0000000E+00  0.0000000E+00  0.0000000E+00  0.0000000E+00  0.2500000E+02
  0.3000000E-01  0.0000000E+00  0.3500000E-01  0.9908112E+01  0.3926550E-03  0.0000000E+00  0.0000000E+00  0.0000000E+00  0.0000000E+00  0.0000000E+00  0.0000000E+00  0.2500000E+02
  0.3500000E-01  0.0000000E+00  0.3500000E-01  0.9914106E+01  0.3926829E-03  0.0000000E+00  0.0000000E+00  0.0000000E+00  0.0000000E+00  0.0000000E+00  0.0000000E+00  0.2500000E+02
  0.4000000E-01  0.0000000E+00  0.3500000E-01  0.9914600E+01  0.3926784E-03  0.0000000E+00  0.0000000E+00  0.0000000E+00  0.0000000E+00  0.0000000E+00  0.0000000E+00  0.2500000E+02
  0.4500000E-01  0.0000000E+00  0.3500000E-01  0.9914641E+01  0.3926822E-03  0.0000000E+00  0.0000000E+00  0.0000000E+00  0.0000000E+00  0.0000000E+00  0.0000000E+00  0.2500000E+02
  0.5000000E-01  0.0000000E+00  0.3500000E-01  0.9914655E+01  0.3926963E-03  0.0000000E+00  0.0000000E+00  0.0000000E+00  0.0000000E+00  0.0000000E+00  0.0000000E+00  0.2500000E+02
  0.5500000E-01  0.0000000E+00  0.3500000E-01  0.9914658E+01  0.3926992E-03  0.0000000E+00  0.0000000E+00  0.0000000E+00  0.0000000E+00  0.0000000E+00  0.0000000E+00  0.2500000E+02
  0.6000000E-01  0.0000000E+00  0.3500000E-01  0.9914636E+01  0.3926722E-03  0.0000000E+00  0.0000000E+00  0.0000000E+00  0.0000000E+00  0.0000000E+00  0.0000000E+00  0.2500000E+02
  0.6500000E-01  0.0000000E+00  0.3500000E-01  0.9914617E+01  0.3926484E-03  0.0000000E+00  0.0000000E+00  0.0000000E+00  0.0000000E+00  0.0000000E+00  0.0000000E+00  0.2500000E+02
  0.7000000E-01  0.0000000E+00  0.3500000E-01  0.9914639E+01  0.3926755E-03  0.0000000E+00  0.0000000E+00  0.0000000E+00  0.0000000E+00  0.0000000E+00  0.0000000E+00  0.2500000E+02
  0.7500000E-01  0.0000000E+00  0.3500000E-01  0.9914666E+01  0.3927097E-03  0.0000000E+00  0.0000000E+00  0.0000000E+00  0.0000000E+00  0.0000000E+00  0.0000000E+00  0.2500000E+02