title = "dataset clem3d"
variables = "x", "y", "z", "K_xx", "K_yy", "K_zz"
zone t = "K - initial [m/s]", i =   31, j =   11, k =   41,  f=point
  0.0000000E+00  0.0000000E+00  0.0000000E+00  0.9720000E-04  0.9720000E-04  0.9720000E-04
  0.1000000E+00  0.0000000E+00  0.0000000E+00  0.9720000E-04  0.9720000E-04  0.9720000E-04
  0.2000000E+00  0.0000000E+00  0.0000000E+00  0.9720000E-04  0.9720000E-04  0.9720000E-04
  0.3000000E+00  0.0000000E+00  0.0000000E+00  0.9720000E-04  0.9720000E-04  0.9720000E-04
  0.4000000E+00  0.0000000E+00  0.0000000E+00  0.9720000E-04  0.9720000E-04  0.9720000E-04
  0.5000000E+00  0.0000000E+00  0.0000000E+00  0.9720000E-04  0.9720000E-04  0.9720000E-04
  0.6000000E+00  0.0000000E+00  0.0000000E+00  0.9720000E-04  0.9720000E-04  0.9720000E-04
  0.7000000E+00  0.0000000E+00  0.0000000E+00  0.9720000E-04  0.9720000E-04  0.9720000E-04
  0.8000000E+00  0.0000000E+00  0.0000000E+00  0.9720000E-04  0.9720000E-04  0.9720000E-04
  0.9000000E+00  0.0000000E+00  0.0000000E+00  0.9720000E-04  0.9720000E-04  0.9720000E-04
  0.1000000E+01  0.0000000E+00  0.0000000E+00  0.9720000E-04  0.9720000E-04  0.9720000E-04
  0.1100000E+01  0.0000000E+00  0.0000000E+00  0.9720000E-04  0.9720000E-04  0.9720000E-04
  0.1200000E+01  0.0000000E+00  0.0000000E+00  0.9720000E-04  0.9720000E-04  0.9720000E-04
  0.1300000E+01  0.0000000E+00  0.0000000E+00  0.9720000E-04  0.9720000E-04  0.9720000E-04
  0.1400000E+01  0.0000000E+00  0.0000000E+00  0.9720000E-04  0.9720000E-04  0.9720000E-04
  0.1500000E+01  0.0000000E+00  0.0000000E+00  0.9720000E-04  0.9720000E-04  0.9720000E-04
  0.1600000E+01  0.0000000E+00  0.0000000E+00  0.9720000E-04  0.9720000E-04  0.9720000E-04
  0.1700000E+01  0.0000000E+00  0.0000000E+00  0.9720000E-04  0.9720000E-04  0.9720000E-04
  0.1800000E+01  0.0000000E+00  0.0000000E+00  0.9720000E-04  0.9720000E-04  0.9720000E-04
  0.1900000E+01  0.0000000E+00  0.0000000E+00  0.9720000E-04  0.9720000E-04  0.9720000E-04
  0.2000000E+01  0.0000000E+00  0.0000000E+00  0.9720000E-04  0.9720000E-04  0.9720000E-04
  0.2100000E+01  0.0000000E+00  0.0000000E+00  0.9720000E-04  0.9720000E-04  0.9720000E-04
  0.2200000E+01  0.0000000E+00  0.0000000E+00  0.9720000E-04  0.9720000E-04  0.9720000E-04
  0.2300000E+01  0.0000000E+00  0.0000000E+00  0.9720000E-04  0.9720000E-04  0.9720000E-04
  0.2400000E+01  0.0000000E+00  0.0000000E+00  0.9720000E-04  0.9720000E-04  0.9720000E-04
  0.2500000E+01  0.0000000E+00  0.0000000E+00  0.9720000E-04  0.9720000E-04  0.9720000E-04
  0.2600000E+01  0.0000000E+00  0.0000000E+00  0.9720000E-04  0.9720000E-04  0.9720000E-04
  0.2700000E+01  0.0000000E+00  0.0000000E+00  0.9720000E-04  0.9720000E-04  0.9720000E-04
  0.2800000E+01  0.0000000E+00  0.0000000E+00  0.9720000E-04  0.9720000E-04  0.9720000E-04
  0.2900000E+01  0.0000000E+00  0.0000000E+00  0.9720000E-04  0.9720000E-04  0.9720000E-04
  0.3000000E+01  0.0000000E+00  0.0000000E+00  0.9720000E-04  0.9720000E-04  0.9720000E-04
  0.0000000E+00  0.1000000E+00  0.0000000E+00  0.9720000E-04  0.9720000E-04  0.9720000E-04
  0.1000000E+00  0.1000000E+00  0.0000000E+00  0.9720000E-04  0.9720000E-04  0.9720000E-04
  0.2000000E+00  0.1000000E+00  0.0000000E+00  0.9720000E-04  0.9720000E-04  0.9720000E-04
  0.3000000E+00  0.1000000E+00  0.0000000E+00  0.9720000E-04  0.9720000E-04  0.9720000E-04
  0.4000000E+00  0.1000000E+00  0.0000000E+00  0.9720000E-04  0.9720000E-04  0.9720000E-04
  0.5000000E+00  0.1000000E+00  0.0000000E+00  0.9720000E-04  0.9720000E-04  0.9720000E-04
  0.6000000E+00  0.1000000E+00  0.0000000E+00  0.9720000E-04  0.9720000E-04  0.9720000E-04
  0.7000000E+00  0.1000000E+00  0.0000000E+00  0.9720000E-04  0.9720000E-04  0.9720000E-04
  0.8000000E+00  0.1000000E+00  0.0000000E+00  0.9720000E-04  0.9720000E-04  0.9720000E-04
  0.9000000E+00  0.1000000E+00  0.0000000E+00  0.9720000E-04  0.9720000E-04  0.9720000E-04
  0.1000000E+01  0.1000000E+00  0.0000000E+00  0.9720000E-04  0.9720000E-04  0.9720000E-04
  0.1100000E+01  0.1000000E+00  0.0000000E+00  0.9720000E-04  0.9720000E-04  0.9720000E-04
  0.1200000E+01  0.1000000E+00  0.0000000E+00  0.9720000E-04  0.9720000E-04  0.9720000E-04
  0.1300000E+01  0.1000000E+00  0.0000000E+00  0.9720000E-04  0.9720000E-04  0.9720000E-04
  0.1400000E+01  0.1000000E+00  0.0000000E+00  0.9720000E-04  0.9720000E-04  0.9720000E-04
  0.1500000E+01  0.1000000E+00  0.0000000E+00  0.9720000E-04  0.9720000E-04  0.9720000E-04
  0.1600000E+01  0.1000000E+00  0.0000000E+00  0.9720000E-04  0.9720000E-04  0.9720000E-04
  0.1700000E+01  0.1000000E+00  0.0000000E+00  0.9720000E-04  0.9720000E-04  0.9720000E-04
  0.1800000E+01  0.1000000E+00  0.0000000E+00  0.9720000E-04  0.9720000E-04  0.9720000E-04
  0.1900000E+01  0.1000000E+00  0.0000000E+00  0.9720000E-04  0.9720000E-04  0.9720000E-04
  0.2000000E+01  0.1000000E+00  0.0000000E+00  0.9720000E-04  0.9720000E-04  0.9720000E-04
  0.2100000E+01  0.1000000E+00  0.0000000E+00  0.9720000E-04  0.9720000E-04  0.9720000E-04
  0.2200000E+01  0.1000000E+00  0.0000000E+00  0.9720000E-04  0.9720000E-04  0.9720000E-04
  0.2300000E+01  0.1000000E+00  0.0000000E+00  0.9720000E-04  0.9720000E-04  0.9720000E-04
  0.2400000E+01  0.1000000E+00  0.0000000E+00  0.9720000E-04  0.9720000E-04  0.9720000E-04
  0.2500000E+01  0.1000000E+00  0.0000000E+00  0.9720000E-04  0.9720000E-04  0.9720000E-04
  0.2600000E+01  0.1000000E+00  0.0000000E+00  0.9720000E-04  0.9720000E-04  0.9720000E-04
  0.2700000E+01  0.1000000E+00  0.0000000E+00  0.9720000E-04  0.9720000E-04  0.9720000E-04
  0.2800000E+01  0.1000000E+00  0.0000000E+00  0.9720000E-04  0.9720000E-04  0.9720000E-04
  0.2900000E+01  0.1000000E+00  0.0000000E+00  0.9720000E-04  0.9720000E-04  0.9720000E-04
  0.3000000E+01  0.1000000E+00  0.0000000E+00  0.9720000E-04  0.9720000E-04  0.9720000E-04
  0.0000000E+00  0.2000000E+00  0.0000000E+00  0.9720000E-04  0.9720000E-04  0.9720000E-04
  0.1000000E+00  0.2000000E+00  0.0000000E+00  0.9720000E-04  0.9720000E-04  0.9720000E-04
  0.2000000E+00  0.2000000E+00  0.0000000E+00  0.9720000E-04  0.9720000E-04  0.9720000E-04
  0.3000000E+00  0.2000000E+00  0.0000000E+00  0.9720000E-04  0.9720000E-04  0.9720000E-04
  0.4000000E+00  0.2000000E+00  0.0000000E+00  0.9720000E-04  0.9720000E-04  0.9720000E-04
  0.5000000E+00  0.2000000E+00  0.0000000E+00  0.9720000E-04  0.9720000E-04  0.9720000E-04
  0.6000000E+00  0.2000000E+00  0.0000000E+00  0.9720000E-04  0.9720000E-04  0.9720000E-04
  0.7000000E+00  0.2000000E+00  0.0000000E+00  0.9720000E-04  0.9720000E-04  0.9720000E-04
  0.8000000E+00  0.2000000E+00  0.0000000E+00  0.9720000E-04  0.9720000E-04  0.9720000E-04
  0.9000000E+00  0.2000000E+00  0.0000000E+00  0.9720000E-04  0.9720000E-04  0.9720000E-04
  0.1000000E+01  0.2000000E+00  0.0000000E+00  0.9720000E-04  0.9720000E-04  0.9720000E-04
  0.1100000E+01  0.2000000E+00  0.0000000E+00  0.9720000E-04  0.9720000E-04  0.9720000E-04
  0.1200000E+01  0.2000000E+00  0.0000000E+00  0.9720000E-04  0.9720000E-04  0.9720000E-04
  0.1300000E+01  0.2000000E+00  0.0000000E+00  0.9720000E-04  0.9720000E-04  0.9720000E-04
  0.1400000E+01  0.2000000E+00  0.0000000E+00  0.9720000E-04  0.9720000E-04  0.9720000E-04
  0.1500000E+01  0.2000000E+00  0.0000000E+00  0.9720000E-04  0.9720000E-04  0.9720000E-04
  0.1600000E+01  0.2000000E+00  0.0000000E+00  0.9720000E-04  0.9720000E-04  0.9720000E-04
  0.1700000E+01  0.2000000E+00  0.0000000E+00  0.9720000E-04  0.9720000E-04  0.9720000E-04
  0.1800000E+01  0.2000000E+00  0.0000000E+00  0.9720000E-04  0.9720000E-04  0.9720000E-04
  0.1900000E+01  0.2000000E+00  0.0000000E+00  0.9720000E-04  0.9720000E-04  0.9720000E-04
  0.2000000E+01  0.2000000E+00  0.0000000E+00  0.9720000E-04  0.9720000E-04  0.9720000E-04
  0.2100000E+01  0.2000000E+00  0.0000000E+00  0.9720000E-04  0.9720000E-04  0.9720000E-04
  0.2200000E+01  0.2000000E+00  0.0000000E+00  0.9720000E-04  0.9720000E-04  0.9720000E-04
  0.2300000E+01  0.2000000E+00  0.0000000E+00  0.9720000E-04  0.9720000E-04  0.9720000E-04
  0.2400000E+01  0.2000000E+00  0.0000000E+00  0.9720000E-04  0.9720000E-04  0.9720000E-04
  0.2500000E+01  0.2000000E+00  0.0000000E+00  0.9720000E-04  0.9720000E-04  0.9720000E-04
  0.2600000E+01  0.2000000E+00  0.0000000E+00  0.9720000E-04  0.9720000E-04  0.9720000E-04
  0.2700000E+01  0.2000000E+00  0.0000000E+00  0.9720000E-04  0.9720000E-04  0.9720000E-04
  0.2800000E+01  0.2000000E+00  0.0000000E+00  0.9720000E-04  0.9720000E-04  0.9720000E-04
  0.2900000E+01  0.2000000E+00  0.0000000E+00  0.9720000E-04  0.9720000E-04  0.9720000E-04
  0.3000000E+01  0.2000000E+00  0.0000000E+00  0.9720000E-04  0.9720000E-04  0.9720000E-04
  0.0000000E+00  0.3000000E+00  0.0000000E+00  0.9720000E-04  0.9720000E-04  0.9720000E-04
  0.1000000E+00  0.3000000E+00  0.0000000E+00  0.9720000E-04  0.9720000E-04  0.9720000E-04
  0.2000000E+00  0.3000000E+00  0.0000000E+00  0.9720000E-04  0.9720000E-04  0.9720000E-04
  0.3000000E+00  0.3000000E+00  0.0000000E+00  0.9720000E-04  0.9720000E-04  0.9720000E-04
  0.4000000E+00  0.3000000E+00  0.0000000E+00  0.9720000E-04  0.9720000E-04  0.9720000E-04
  0.5000000E+00  0.3000000E+00  0.0000000E+00  0.9720000E-04  0.9720000E-04  0.9720000E-04
  0.6000000E+00  0.3000000E+00  0.0000000E+00  0.9720000E-04  0.9720000E-04  0.9720000E-04
  0.7000000E+00  0.3000000E+00  0.0000000E+00  0.9720000E-04  0.9720000E-04  0.9720000E-04
  0.8000000E+00  0.3000000E+00  0.0000000E+00  0.9720000E-04  0.9720000E-04  0.9720000E-04
  0.9000000E+00  0.3000000E+00  0.0000000E+00  0.9720000E-04  0.9720000E-04  0.9720000E-04
  0.1000000E+01  0.3000000E+00  0.0000000E+00  0.9720000E-04  0.9720000E-04  0.9720000E-04
  0.1100000E+01  0.3000000E+00  0.0000000E+00  0.9720000E-04  0.9720000E-04  0.9720000E-04
  0.1200000E+01  0.3000000E+00  0.0000000E+00  0.9720000E-04  0.9720000E-04  0.9720000E-04
  0.1300000E+01  0.3000000E+00  0.0000000E+00  0.9720000E-04  0.9720000E-04  0.9720000E-04
  0.1400000E+01  0.3000000E+00  0.0000000E+00  0.9720000E-04  0.9720000E-04  0.9720000E-04
  0.1500000E+01  0.3000000E+00  0.0000000E+00  0.9720000E-04  0.9720000E-04  0.9720000E-04
  0.1600000E+01  0.3000000E+00  0.0000000E+00  0.9720000E-04  0.9720000E-04  0.9720000E-04
  0.1700000E+01  0.3000000E+00  0.0000000E+00  0.9720000E-04  0.9720000E-04  0.9720000E-04
  0.1800000E+01  0.3000000E+00  0.0000000E+00  0.9720000E-04  0.9720000E-04  0.9720000E-04
  0.1900000E+01  0.3000000E+00  0.0000000E+00  0.9720000E-04  0.9720000E-04  0.9720000E-04
  0.2000000E+01  0.3000000E+00  0.0000000E+00  0.9720000E-04  0.9720000E-04  0.9720000E-04
  0.2100000E+01  0.3000000E+00  0.0000000E+00  0.9720000E-04  0.9720000E-04  0.9720000E-04
  0.2200000E+01  0.3000000E+00  0.0000000E+00  0.9720000E-04  0.9720000E-04  0.9720000E-04
  0.2300000E+01  0.3000000E+00  0.0000000E+00  0.9720000E-04  0.9720000E-04  0.9720000E-04
  0.2400000E+01  0.3000000E+00  0.0000000E+00  0.9720000E-04  0.9720000E-04  0.9720000E-04
  0.2500000E+01  0.3000000E+00  0.0000000E+00  0.9720000E-04  0.9720000E-04  0.9720000E-04
  0.2600000E+01  0.3000000E+00  0.0000000E+00  0.9720000E-04  0.9720000E-04  0.9720000E-04
  0.2700000E+01  0.3000000E+00  0.0000000E+00  0.9720000E-04  0.9720000E-04  0.9720000E-04
  0.2800000E+01  0.3000000E+00  0.0000000E+00  0.9720000E-04  0.9720000E-04  0.9720000E-04
  0.2900000E+01  0.3000000E+00  0.0000000E+00  0.9720000E-04  0.9720000E-04  0.9720000E-04
  0.3000000E+01  0.3000000E+00  0.0000000E+00  0.9720000E-04  0.9720000E-04  0.9720000E-04
  0.0000000E+00  0.4000000E+00  0.0000000E+00  0.9720000E-04  0.9720000E-04  0.9720000E-04
  0.1000000E+00  0.4000000E+00  0.0000000E+00  0.9720000E-04  0.9720000E-04  0.9720000E-04
  0.2000000E+00  0.4000000E+00  0.0000000E+00  0.9720000E-04  0.9720000E-04  0.9720000E-04
  0.3000000E+00  0.4000000E+00  0.0000000E+00  0.9720000E-04  0.9720000E-04  0.9720000E-04
  0.4000000E+00  0.4000000E+00  0.0000000E+00  0.9720000E-04  0.9720000E-04  0.9720000E-04
  0.5000000E+00  0.4000000E+00  0.0000000E+00  0.9720000E-04  0.9720000E-04  0.9720000E-04
  0.6000000E+00  0.4000000E+00  0.0000000E+00  0.9720000E-04  0.9720000E-04  0.9720000E-04
  0.7000000E+00  0.4000000E+00  0.0000000E+00  0.9720000E-04  0.9720000E-04  0.9720000E-04
  0.8000000E+00  0.4000000E+00  0.0000000E+00  0.9720000E-04  0.9720000E-04  0.9720000E-04
  0.9000000E+00  0.4000000E+00  0.0000000E+00  0.9720000E-04  0.9720000E-04  0.9720000E-04
  0.1000000E+01  0.4000000E+00  0.0000000E+00  0.9720000E-04  0.9720000E-04  0.9720000E-04
  0.1100000E+01  0.4000000E+00  0.0000000E+00  0.9720000E-04  0.9720000E-04  0.9720000E-04
  0.1200000E+01  0.4000000E+00  0.0000000E+00  0.9720000E-04  0.9720000E-04  0.9720000E-04
  0.1300000E+01  0.4000000E+00  0.0000000E+00  0.9720000E-04  0.9720000E-04  0.9720000E-04
  0.1400000E+01  0.4000000E+00  0.0000000E+00  0.9720000E-04  0.9720000E-04  0.9720000E-04
  0.1500000E+01  0.4000000E+00  0.0000000E+00  0.9720000E-04  0.9720000E-04  0.9720000E-04
  0.1600000E+01  0.4000000E+00  0.0000000E+00  0.9720000E-04  0.9720000E-04  0.9720000E-04
  0.1700000E+01  0.4000000E+00  0.0000000E+00  0.9720000E-04  0.9720000E-04  0.9720000E-04
  0.1800000E+01  0.4000000E+00  0.0000000E+00  0.9720000E-04  0.9720000E-04  0.9720000E-04
  0.1900000E+01  0.4000000E+00  0.0000000E+00  0.9720000E-04  0.9720000E-04  0.9720000E-04
  0.2000000E+01  0.4000000E+00  0.0000000E+00  0.9720000E-04  0.9720000E-04  0.9720000E-04
  0.2100000E+01  0.4000000E+00  0.0000000E+00  0.9720000E-04  0.9720000E-04  0.9720000E-04
  0.2200000E+01  0.4000000E+00  0.0000000E+00  0.9720000E-04  0.9720000E-04  0.9720000E-04
  0.2300000E+01  0.4000000E+00  0.0000000E+00  0.9720000E-04  0.9720000E-04  0.9720000E-04
  0.2400000E+01  0.4000000E+00  0.0000000E+00  0.9720000E-04  0.9720000E-04  0.9720000E-04
  0.2500000E+01  0.4000000E+00  0.0000000E+00  0.9720000E-04  0.9720000E-04  0.9720000E-04
  0.2600000E+01  0.4000000E+00  0.0000000E+00  0.9720000E-04  0.9720000E-04  0.9720000E-04
  0.2700000E+01  0.4000000E+00  0.0000000E+00  0.9720000E-04  0.9720000E-04  0.9720000E-04
  0.2800000E+01  0.4000000E+00  0.0000000E+00  0.9720000E-04  0.9720000E-04  0.9720000E-04
  0.2900000E+01  0.4000000E+00  0.0000000E+00  0.9720000E-04  0.9720000E-04  0.9720000E-04
  0.3000000E+01  0.4000000E+00  0.0000000E+00  0.9720000E-04  0.9720000E-04  0.9720000E-04
  0.0000000E+00  0.5000000E+00  0.0000000E+00  0.9720000E-04  0.9720000E-04  0.9720000E-04
  0.1000000E+00  0.5000000E+00  0.0000000E+00  0.9720000E-04  0.9720000E-04  0.9720000E-04
  0.2000000E+00  0.5000000E+00  0.0000000E+00  0.9720000E-04  0.9720000E-04  0.9720000E-04
  0.3000000E+00  0.5000000E+00  0.0000000E+00  0.9720000E-04  0.9720000E-04  0.9720000E-04
  0.4000000E+00  0.5000000E+00  0.0000000E+00  0.9720000E-04  0.9720000E-04  0.9720000E-04
  0.5000000E+00  0.5000000E+00  0.0000000E+00  0.9720000E-04  0.9720000E-04  0.9720000E-04
  0.6000000E+00  0.5000000E+00  0.0000000E+00  0.9720000E-04  0.9720000E-04  0.9720000E-04
  0.7000000E+00  0.5000000E+00  0.0000000E+00  0.9720000E-04  0.9720000E-04  0.9720000E-04
  0.8000000E+00  0.5000000E+00  0.0000000E+00  0.9720000E-04  0.9720000E-04  0.9720000E-04
  0.9000000E+00  0.5000000E+00  0.0000000E+00  0.9720000E-04  0.9720000E-04  0.9720000E-04
  0.1000000E+01  0.5000000E+00  0.0000000E+00  0.9720000E-04  0.9720000E-04  0.9720000E-04
  0.1100000E+01  0.5000000E+00  0.0000000E+00  0.9720000E-04  0.9720000E-04  0.9720000E-04
  0.1200000E+01  0.5000000E+00  0.0000000E+00  0.9720000E-04  0.9720000E-04  0.9720000E-04
  0.1300000E+01  0.5000000E+00  0.0000000E+00  0.9720000E-04  0.9720000E-04  0.9720000E-04
  0.1400000E+01  0.5000000E+00  0.0000000E+00  0.9720000E-04  0.9720000E-04  0.9720000E-04
  0.1500000E+01  0.5000000E+00  0.0000000E+00  0.9720000E-04  0.9720000E-04  0.9720000E-04
  0.1600000E+01  0.5000000E+00  0.0000000E+00  0.9720000E-04  0.9720000E-04  0.9720000E-04
  0.1700000E+01  0.5000000E+00  0.0000000E+00  0.9720000E-04  0.9720000E-04  0.9720000E-04
  0.1800000E+01  0.5000000E+00  0.0000000E+00  0.9720000E-04  0.9720000E-04  0.9720000E-04
  0.1900000E+01  0.5000000E+00  0.0000000E+00  0.9720000E-04  0.9720000E-04  0.9720000E-04
  0.2000000E+01  0.5000000E+00  0.0000000E+00  0.9720000E-04  0.9720000E-04  0.9720000E-04
  0.2100000E+01  0.5000000E+00  0.0000000E+00  0.9720000E-04  0.9720000E-04  0.9720000E-04
  0.2200000E+01  0.5000000E+00  0.0000000E+00  0.9720000E-04  0.9720000E-04  0.9720000E-04
  0.2300000E+01  0.5000000E+00  0.0000000E+00  0.9720000E-04  0.9720000E-04  0.9720000E-04
  0.2400000E+01  0.5000000E+00  0.0000000E+00  0.9720000E-04  0.9720000E-04  0.9720000E-04
  0.2500000E+01  0.5000000E+00  0.0000000E+00  0.9720000E-04  0.9720000E-04  0.9720000E-04
  0.2600000E+01  0.5000000E+00  0.0000000E+00  0.9720000E-04  0.9720000E-04  0.9720000E-04
  0.2700000E+01  0.5000000E+00  0.0000000E+00  0.9720000E-04  0.9720000E-04  0.9720000E-04
  0.2800000E+01  0.5000000E+00  0.0000000E+00  0.9720000E-04  0.9720000E-04  0.9720000E-04
  0.2900000E+01  0.5000000E+00  0.0000000E+00  0.9720000E-04  0.9720000E-04  0.9720000E-04
  0.3000000E+01  0.5000000E+00  0.0000000E+00  0.9720000E-04  0.9720000E-04  0.9720000E-04
  0.0000000E+00  0.6000000E+00  0.0000000E+00  0.9720000E-04  0.9720000E-04  0.9720000E-04
  0.1000000E+00  0.6000000E+00  0.0000000E+00  0.9720000E-04  0.9720000E-04  0.9720000E-04
  0.2000000E+00  0.6000000E+00  0.0000000E+00  0.9720000E-04  0.9720000E-04  0.9720000E-04
  0.3000000E+00  0.6000000E+00  0.0000000E+00  0.9720000E-04  0.9720000E-04  0.9720000E-04
  0.4000000E+00  0.6000000E+00  0.0000000E+00  0.9720000E-04  0.9720000E-04  0.9720000E-04
  0.5000000E+00  0.6000000E+00  0.0000000E+00  0.9720000E-04  0.9720000E-04  0.9720000E-04
  0.6000000E+00  0.6000000E+00  0.0000000E+00  0.9720000E-04  0.9720000E-04  0.9720000E-04
  0.7000000E+00  0.6000000E+00  0.0000000E+00  0.9720000E-04  0.9720000E-04  0.9720000E-04
  0.8000000E+00  0.6000000E+00  0.0000000E+00  0.9720000E-04  0.9720000E-04  0.9720000E-04
  0.9000000E+00  0.6000000E+00  0.0000000E+00  0.9720000E-04  0.9720000E-04  0.9720000E-04
  0.1000000E+01  0.6000000E+00  0.0000000E+00  0.9720000E-04  0.9720000E-04  0.9720000E-04
  0.1100000E+01  0.6000000E+00  0.0000000E+00  0.9720000E-04  0.9720000E-04  0.9720000E-04
  0.1200000E+01  0.6000000E+00  0.0000000E+00  0.9720000E-04  0.9720000E-04  0.9720000E-04
  0.1300000E+01  0.6000000E+00  0.0000000E+00  0.9720000E-04  0.9720000E-04  0.9720000E-04
  0.1400000E+01  0.6000000E+00  0.0000000E+00  0.9720000E-04  0.9720000E-04  0.9720000E-04
  0.1500000E+01  0.6000000E+00  0.0000000E+00  0.9720000E-04  0.9720000E-04  0.9720000E-04
  0.1600000E+01  0.6000000E+00  0.0000000E+00  0.9720000E-04  0.9720000E-04  0.9720000E-04
  0.1700000E+01  0.6000000E+00  0.0000000E+00  0.9720000E-04  0.9720000E-04  0.9720000E-04
  0.1800000E+01  0.6000000E+00  0.0000000E+00  0.9720000E-04  0.9720000E-04  0.9720000E-04
  0.1900000E+01  0.6000000E+00  0.0000000E+00  0.9720000E-04  0.9720000E-04  0.9720000E-04
  0.2000000E+01  0.6000000E+00  0.0000000E+00  0.9720000E-04  0.9720000E-04  0.9720000E-04
  0.2100000E+01  0.6000000E+00  0.0000000E+00  0.9720000E-04  0.9720000E-04  0.9720000E-04
  0.2200000E+01  0.6000000E+00  0.0000000E+00  0.9720000E-04  0.9720000E-04  0.9720000E-04
  0.2300000E+01  0.6000000E+00  0.0000000E+00  0.9720000E-04  0.9720000E-04  0.9720000E-04
  0.2400000E+01  0.6000000E+00  0.0000000E+00  0.9720000E-04  0.9720000E-04  0.9720000E-04
  0.2500000E+01  0.6000000E+00  0.0000000E+00  0.9720000E-04  0.9720000E-04  0.9720000E-04
  0.2600000E+01  0.6000000E+00  0.0000000E+00  0.9720000E-04  0.9720000E-04  0.9720000E-04
  0.2700000E+01  0.6000000E+00  0.0000000E+00  0.9720000E-04  0.9720000E-04  0.9720000E-04
  0.2800000E+01  0.6000000E+00  0.0000000E+00  0.9720000E-04  0.9720000E-04  0.9720000E-04
  0.2900000E+01  0.6000000E+00  0.0000000E+00  0.9720000E-04  0.9720000E-04  0.9720000E-04
  0.3000000E+01  0.6000000E+00  0.0000000E+00  0.9720000E-04  0.9720000E-04  0.9720000E-04
  0.0000000E+00  0.7000000E+00  0.0000000E+00  0.9720000E-04  0.9720000E-04  0.9720000E-04
  0.1000000E+00  0.7000000E+00  0.0000000E+00  0.9720000E-04  0.9720000E-04  0.9720000E-04
  0.2000000E+00  0.7000000E+00  0.0000000E+00  0.9720000E-04  0.9720000E-04  0.9720000E-04
  0.3000000E+00  0.7000000E+00  0.0000000E+00  0.9720000E-04  0.9720000E-04  0.9720000E-04
  0.4000000E+00  0.7000000E+00  0.0000000E+00  0.9720000E-04  0.9720000E-04  0.9720000E-04
  0.5000000E+00  0.7000000E+00  0.0000000E+00  0.9720000E-04  0.9720000E-04  0.9720000E-04
  0.6000000E+00  0.7000000E+00  0.0000000E+00  0.9720000E-04  0.9720000E-04  0.9720000E-04
  0.7000000E+00  0.7000000E+00  0.0000000E+00  0.9720000E-04  0.9720000E-04  0.9720000E-04
  0.8000000E+00  0.7000000E+00  0.0000000E+00  0.9720000E-04  0.9720000E-04  0.9720000E-04
  0.9000000E+00  0.7000000E+00  0.0000000E+00  0.9720000E-04  0.9720000E-04  0.9720000E-04
  0.1000000E+01  0.7000000E+00  0.0000000E+00  0.9720000E-04  0.9720000E-04  0.9720000E-04
  0.1100000E+01  0.7000000E+00  0.0000000E+00  0.9720000E-04  0.9720000E-04  0.9720000E-04
  0.1200000E+01  0.7000000E+00  0.0000000E+00  0.9720000E-04  0.9720000E-04  0.9720000E-04
  0.1300000E+01  0.7000000E+00  0.0000000E+00  0.9720000E-04  0.9720000E-04  0.9720000E-04
  0.1400000E+01  0.7000000E+00  0.0000000E+00  0.9720000E-04  0.9720000E-04  0.9720000E-04
  0.1500000E+01  0.7000000E+00  0.0000000E+00  0.9720000E-04  0.9720000E-04  0.9720000E-04
  0.1600000E+01  0.7000000E+00  0.0000000E+00  0.9720000E-04  0.9720000E-04  0.9720000E-04
  0.1700000E+01  0.7000000E+00  0.0000000E+00  0.9720000E-04  0.9720000E-04  0.9720000E-04
  0.1800000E+01  0.7000000E+00  0.0000000E+00  0.9720000E-04  0.9720000E-04  0.9720000E-04
  0.1900000E+01  0.7000000E+00  0.0000000E+00  0.9720000E-04  0.9720000E-04  0.9720000E-04
  0.2000000E+01  0.7000000E+00  0.0000000E+00  0.9720000E-04  0.9720000E-04  0.9720000E-04
  0.2100000E+01  0.7000000E+00  0.0000000E+00  0.9720000E-04  0.9720000E-04  0.9720000E-04
  0.2200000E+01  0.7000000E+00  0.0000000E+00  0.9720000E-04  0.9720000E-04  0.9720000E-04
  0.2300000E+01  0.7000000E+00  0.0000000E+00  0.9720000E-04  0.9720000E-04  0.9720000E-04
  0.2400000E+01  0.7000000E+00  0.0000000E+00  0.9720000E-04  0.9720000E-04  0.9720000E-04
  0.2500000E+01  0.7000000E+00  0.0000000E+00  0.9720000E-04  0.9720000E-04  0.9720000E-04
  0.2600000E+01  0.7000000E+00  0.0000000E+00  0.9720000E-04  0.9720000E-04  0.9720000E-04
  0.2700000E+01  0.7000000E+00  0.0000000E+00  0.9720000E-04  0.9720000E-04  0.9720000E-04
  0.2800000E+01  0.7000000E+00  0.0000000E+00  0.9720000E-04  0.9720000E-04  0.9720000E-04
  0.2900000E+01  0.7000000E+00  0.0000000E+00  0.9720000E-04  0.9720000E-04  0.9720000E-04
  0.3000000E+01  0.7000000E+00  0.0000000E+00  0.9720000E-04  0.9720000E-04  0.9720000E-04
  0.0000000E+00  0.8000000E+00  0.0000000E+00  0.9720000E-04  0.9720000E-04  0.9720000E-04
  0.1000000E+00  0.8000000E+00  0.0000000E+00  0.9720000E-04  0.9720000E-04  0.9720000E-04
  0.2000000E+00  0.8000000E+00  0.0000000E+00  0.9720000E-04  0.9720000E-04  0.9720000E-04
  0.3000000E+00  0.8000000E+00  0.0000000E+00  0.9720000E-04  0.9720000E-04  0.9720000E-04
  0.4000000E+00  0.8000000E+00  0.0000000E+00  0.9720000E-04  0.9720000E-04  0.9720000E-04
  0.5000000E+00  0.8000000E+00  0.0000000E+00  0.9720000E-04  0.9720000E-04  0.9720000E-04
  0.6000000E+00  0.8000000E+00  0.0000000E+00  0.9720000E-04  0.9720000E-04  0.9720000E-04
  0.7000000E+00  0.8000000E+00  0.0000000E+00  0.9720000E-04  0.9720000E-04  0.9720000E-04
  0.8000000E+00  0.8000000E+00  0.0000000E+00  0.9720000E-04  0.9720000E-04  0.9720000E-04
  0.9000000E+00  0.8000000E+00  0.0000000E+00  0.9720000E-04  0.9720000E-04  0.9720000E-04
  0.1000000E+01  0.8000000E+00  0.0000000E+00  0.9720000E-04  0.9720000E-04  0.9720000E-04
  0.1100000E+01  0.8000000E+00  0.0000000E+00  0.9720000E-04  0.9720000E-04  0.9720000E-04
  0.1200000E+01  0.8000000E+00  0.0000000E+00  0.9720000E-04  0.9720000E-04  0.9720000E-04
  0.1300000E+01  0.8000000E+00  0.0000000E+00  0.9720000E-04  0.9720000E-04  0.9720000E-04
  0.1400000E+01  0.8000000E+00  0.0000000E+00  0.9720000E-04  0.9720000E-04  0.9720000E-04
  0.1500000E+01  0.8000000E+00  0.0000000E+00  0.9720000E-04  0.9720000E-04  0.9720000E-04
  0.1600000E+01  0.8000000E+00  0.0000000E+00  0.9720000E-04  0.9720000E-04  0.9720000E-04
  0.1700000E+01  0.8000000E+00  0.0000000E+00  0.9720000E-04  0.9720000E-04  0.9720000E-04
  0.1800000E+01  0.8000000E+00  0.0000000E+00  0.9720000E-04  0.9720000E-04  0.9720000E-04
  0.1900000E+01  0.8000000E+00  0.0000000E+00  0.9720000E-04  0.9720000E-04  0.9720000E-04
  0.2000000E+01  0.8000000E+00  0.0000000E+00  0.9720000E-04  0.9720000E-04  0.9720000E-04
  0.2100000E+01  0.8000000E+00  0.0000000E+00  0.9720000E-04  0.9720000E-04  0.9720000E-04
  0.2200000E+01  0.8000000E+00  0.0000000E+00  0.9720000E-04  0.9720000E-04  0.9720000E-04
  0.2300000E+01  0.8000000E+00  0.0000000E+00  0.9720000E-04  0.9720000E-04  0.9720000E-04
  0.2400000E+01  0.8000000E+00  0.0000000E+00  0.9720000E-04  0.9720000E-04  0.9720000E-04
  0.2500000E+01  0.8000000E+00  0.0000000E+00  0.9720000E-04  0.9720000E-04  0.9720000E-04
  0.2600000E+01  0.8000000E+00  0.0000000E+00  0.9720000E-04  0.9720000E-04  0.9720000E-04
  0.2700000E+01  0.8000000E+00  0.0000000E+00  0.9720000E-04  0.9720000E-04  0.9720000E-04
  0.2800000E+01  0.8000000E+00  0.0000000E+00  0.9720000E-04  0.9720000E-04  0.9720000E-04
  0.2900000E+01  0.8000000E+00  0.0000000E+00  0.9720000E-04  0.9720000E-04  0.9720000E-04
  0.3000000E+01  0.8000000E+00  0.0000000E+00  0.9720000E-04  0.9720000E-04  0.9720000E-04
  0.0000000E+00  0.9000000E+00  0.0000000E+00  0.9720000E-04  0.9720000E-04  0.9720000E-04
  0.1000000E+00  0.9000000E+00  0.0000000E+00  0.9720000E-04  0.9720000E-04  0.9720000E-04
  0.2000000E+00  0.9000000E+00  0.0000000E+00  0.9720000E-04  0.9720000E-04  0.9720000E-04
  0.3000000E+00  0.9000000E+00  0.0000000E+00  0.9720000E-04  0.9720000E-04  0.9720000E-04
  0.4000000E+00  0.9000000E+00  0.0000000E+00  0.9720000E-04  0.9720000E-04  0.9720000E-04
  0.5000000E+00  0.9000000E+00  0.0000000E+00  0.9720000E-04  0.9720000E-04  0.9720000E-04
  0.6000000E+00  0.9000000E+00  0.0000000E+00  0.9720000E-04  0.9720000E-04  0.9720000E-04
  0.7000000E+00  0.9000000E+00  0.0000000E+00  0.9720000E-04  0.9720000E-04  0.9720000E-04
  0.8000000E+00  0.9000000E+00  0.0000000E+00  0.9720000E-04  0.9720000E-04  0.9720000E-04
  0.9000000E+00  0.9000000E+00  0.0000000E+00  0.9720000E-04  0.9720000E-04  0.9720000E-04
  0.1000000E+01  0.9000000E+00  0.0000000E+00  0.9720000E-04  0.9720000E-04  0.9720000E-04
  0.1100000E+01  0.9000000E+00  0.0000000E+00  0.9720000E-04  0.9720000E-04  0.9720000E-04
  0.1200000E+01  0.9000000E+00  0.0000000E+00  0.9720000E-04  0.9720000E-04  0.9720000E-04
  0.1300000E+01  0.9000000E+00  0.0000000E+00  0.9720000E-04  0.9720000E-04  0.9720000E-04
  0.1400000E+01  0.9000000E+00  0.0000000E+00  0.9720000E-04  0.9720000E-04  0.9720000E-04
  0.1500000E+01  0.9000000E+00  0.0000000E+00  0.9720000E-04  0.9720000E-04  0.9720000E-04
  0.1600000E+01  0.9000000E+00  0.0000000E+00  0.9720000E-04  0.9720000E-04  0.9720000E-04
  0.1700000E+01  0.9000000E+00  0.0000000E+00  0.9720000E-04  0.9720000E-04  0.9720000E-04
  0.1800000E+01  0.9000000E+00  0.0000000E+00  0.9720000E-04  0.9720000E-04  0.9720000E-04
  0.1900000E+01  0.9000000E+00  0.0000000E+00  0.9720000E-04  0.9720000E-04  0.9720000E-04
  0.2000000E+01  0.9000000E+00  0.0000000E+00  0.9720000E-04  0.9720000E-04  0.9720000E-04
  0.2100000E+01  0.9000000E+00  0.0000000E+00  0.9720000E-04  0.9720000E-04  0.9720000E-04
  0.2200000E+01  0.9000000E+00  0.0000000E+00  0.9720000E-04  0.9720000E-04  0.9720000E-04
  0.2300000E+01  0.9000000E+00  0.0000000E+00  0.9720000E-04  0.9720000E-04  0.9720000E-04
  0.2400000E+01  0.9000000E+00  0.0000000E+00  0.9720000E-04  0.9720000E-04  0.9720000E-04
  0.2500000E+01  0.9000000E+00  0.0000000E+00  0.9720000E-04  0.9720000E-04  0.9720000E-04
  0.2600000E+01  0.9000000E+00  0.0000000E+00  0.9720000E-04  0.9720000E-04  0.9720000E-04
  0.2700000E+01  0.9000000E+00  0.0000000E+00  0.9720000E-04  0.9720000E-04  0.9720000E-04
  0.2800000E+01  0.9000000E+00  0.0000000E+00  0.9720000E-04  0.9720000E-04  0.9720000E-04
  0.2900000E+01  0.9000000E+00  0.0000000E+00  0.9720000E-04  0.9720000E-04  0.9720000E-04
  0.3000000E+01  0.9000000E+00  0.0000000E+00  0.9720000E-04  0.9720000E-04  0.9720000E-04
  0.0000000E+00  0.1000000E+01  0.0000000E+00  0.9720000E-04  0.9720000E-04  0.9720000E-04
  0.1000000E+00  0.1000000E+01  0.0000000E+00  0.9720000E-04  0.9720000E-04  0.9720000E-04
  0.2000000E+00  0.1000000E+01  0.0000000E+00  0.9720000E-04  0.9720000E-04  0.9720000E-04
  0.3000000E+00  0.1000000E+01  0.0000000E+00  0.9720000E-04  0.9720000E-04  0.9720000E-04
  0.4000000E+00  0.1000000E+01  0.0000000E+00  0.9720000E-04  0.9720000E-04  0.9720000E-04
  0.5000000E+00  0.1000000E+01  0.0000000E+00  0.9720000E-04  0.9720000E-04  0.9720000E-04
  0.6000000E+00  0.1000000E+01  0.0000000E+00  0.9720000E-04  0.9720000E-04  0.9720000E-04
  0.7000000E+00  0.1000000E+01  0.0000000E+00  0.9720000E-04  0.9720000E-04  0.9720000E-04
  0.8000000E+00  0.1000000E+01  0.0000000E+00  0.9720000E-04  0.9720000E-04  0.9720000E-04
  0.9000000E+00  0.1000000E+01  0.0000000E+00  0.9720000E-04  0.9720000E-04  0.9720000E-04
  0.1000000E+01  0.1000000E+01  0.0000000E+00  0.9720000E-04  0.9720000E-04  0.9720000E-04
  0.1100000E+01  0.1000000E+01  0.0000000E+00  0.9720000E-04  0.9720000E-04  0.9720000E-04
  0.1200000E+01  0.1000000E+01  0.0000000E+00  0.9720000E-04  0.9720000E-04  0.9720000E-04
  0.1300000E+01  0.1000000E+01  0.0000000E+00  0.9720000E-04  0.9720000E-04  0.9720000E-04