title = "dataset surfme2"
variables = "time","h+1","me+2","cl-1","=soh"
zone t = "T_j, volume =   101", f=point
  0.0000000E+00 -0.1004615E-03  0.1100929E-10  0.1000000E-09  0.9082241E-05
  0.2400000E-06 -0.1004615E-03  0.1100929E-10  0.1000000E-09  0.9082241E-05
  0.6415968E-06 -0.1004615E-03  0.1100929E-10  0.1000000E-09  0.9082241E-05
  0.1313597E-05 -0.1004615E-03  0.1100929E-10  0.1000000E-09  0.9082241E-05
  0.2438068E-05 -0.1004615E-03  0.1100929E-10  0.1000000E-09  0.9082241E-05
  0.4319668E-05 -0.1004615E-03  0.1100929E-10  0.1000000E-09  0.9082241E-05
  0.7468187E-05 -0.1004615E-03  0.1100929E-10  0.1000000E-09  0.9082241E-05
  0.1273667E-04 -0.1004615E-03  0.1100929E-10  0.1000000E-09  0.9082241E-05
  0.2155252E-04 -0.1004615E-03  0.1100929E-10  0.1000000E-09  0.9082241E-05
  0.3630426E-04 -0.1004615E-03  0.1100929E-10  0.1000000E-09  0.9082241E-05
  0.6098865E-04 -0.1004615E-03  0.1100929E-10  0.1000000E-09  0.9082241E-05
  0.1022935E-03 -0.1004615E-03  0.1100929E-10  0.1000000E-09  0.9082241E-05
  0.1714098E-03 -0.1004615E-03  0.1100929E-10  0.1000000E-09  0.9082241E-05
  0.2870635E-03 -0.1004615E-03  0.1100929E-10  0.1000000E-09  0.9082241E-05
  0.4805891E-03 -0.1004615E-03  0.1100929E-10  0.1000000E-09  0.9082241E-05
  0.7762044E-03 -0.1004615E-03  0.1100929E-10  0.1000000E-09  0.9082241E-05
  0.1227764E-02 -0.1004615E-03  0.1100929E-10  0.1000000E-09  0.9082241E-05
  0.1917533E-02 -0.1004615E-03  0.1100929E-10  0.1000000E-09  0.9082241E-05
  0.2971172E-02 -0.1004615E-03  0.1100929E-10  0.1000000E-09  0.9082241E-05
  0.4580633E-02 -0.1004615E-03  0.1100929E-10  0.1000000E-09  0.9082241E-05
  0.6856755E-02 -0.1004615E-03  0.1100929E-10  0.1000000E-09  0.9082241E-05
  0.1007568E-01 -0.1004615E-03  0.1100929E-10  0.1000000E-09  0.9082241E-05
  0.1462792E-01 -0.1004615E-03  0.1100929E-10  0.1000000E-09  0.9082241E-05
  0.2106576E-01 -0.1004615E-03  0.1100929E-10  0.1000000E-09  0.9082241E-05
  0.3017025E-01 -0.1004615E-03  0.1100929E-10  0.1000000E-09  0.9082241E-05
  0.4221435E-01 -0.1004615E-03  0.1100929E-10  0.1000000E-09  0.9082241E-05
  0.5924728E-01 -0.1004615E-03  0.1100929E-10  0.1000000E-09  0.9082241E-05
  0.8177973E-01 -0.1004615E-03  0.1100929E-10  0.1000000E-09  0.9082241E-05
  0.1115874E+00 -0.1004615E-03  0.1100929E-10  0.1000000E-09  0.9082241E-05
  0.1212374E+00 -0.1004615E-03  0.1100929E-10  0.1000000E-09  0.9082241E-05
  0.1359780E+00 -0.1004615E-03  0.1100929E-10  0.1000000E-09  0.9082241E-05
  0.1584947E+00 -0.1004615E-03  0.1100929E-10  0.1000000E-09  0.9082241E-05
  0.1928895E+00 -0.1004615E-03  0.1100929E-10  0.1000000E-09  0.9082241E-05
  0.2415310E+00 -0.1004615E-03  0.1100929E-10  0.1000000E-09  0.9082241E-05
  0.3021978E+00 -0.1004615E-03  0.1100929E-10  0.1000000E-09  0.9082241E-05
  0.3760654E+00 -0.1004615E-03  0.1100929E-10  0.1000000E-09  0.9082241E-05
  0.3993760E+00 -0.1004615E-03  0.1100929E-10  0.1000000E-09  0.9082241E-05
  0.4383821E+00 -0.1004615E-03  0.1100929E-10  0.1000000E-09  0.9082241E-05
  0.5036517E+00 -0.1004615E-03  0.1100929E-10  0.1000000E-09  0.9082241E-05
  0.5959569E+00 -0.1004615E-03  0.1100929E-10  0.1000000E-09  0.9082241E-05
  0.6247717E+00 -0.1004615E-03  0.1100929E-10  0.1000000E-09  0.9082241E-05
  0.6687871E+00 -0.1004615E-03  0.1100929E-10  0.1000000E-09  0.9082241E-05
  0.7424389E+00 -0.1004615E-03  0.1100929E-10  0.1000000E-09  0.9082241E-05
  0.8549440E+00 -0.1004615E-03  0.1100929E-10  0.1000000E-09  0.9082241E-05
  0.8898721E+00 -0.1004615E-03  0.1100929E-10  0.1000000E-09  0.9082241E-05
  0.9483179E+00 -0.1004615E-03  0.1100929E-10  0.1000000E-09  0.9082241E-05
  0.1046117E+01 -0.1004615E-03  0.1100929E-10  0.1000000E-09  0.9082241E-05
  0.1087336E+01 -0.1004615E-03  0.1100929E-10  0.1000000E-09  0.9082241E-05
  0.1133607E+01 -0.1004615E-03  0.1100929E-10  0.1000000E-09  0.9082241E-05
  0.1204288E+01 -0.1004615E-03  0.1100929E-10  0.1000000E-09  0.9082241E-05
  0.1312255E+01 -0.1004615E-03  0.1100929E-10  0.1000000E-09  0.9082241E-05
  0.1350914E+01 -0.1004615E-03  0.1100929E-10  0.1000000E-09  0.9082241E-05
  0.1409967E+01 -0.1004615E-03  0.1100929E-10  0.1000000E-09  0.9082241E-05
  0.1500172E+01 -0.1004615E-03  0.1100929E-10  0.1000000E-09  0.9082241E-05
  0.1595334E+01 -0.1004615E-03  0.1100929E-10  0.1000000E-09  0.9082241E-05
  0.1632615E+01 -0.1004615E-03  0.1100929E-10  0.1000000E-09  0.9082241E-05
  0.1694997E+01 -0.1004615E-03  0.1100929E-10  0.1000000E-09  0.9082241E-05
  0.1799382E+01 -0.1004615E-03  0.1100929E-10  0.1000000E-09  0.9082241E-05
  0.1839140E+01 -0.1004615E-03  0.1100929E-10  0.1000000E-09  0.9082241E-05
  0.1899871E+01 -0.1004615E-03  0.1100929E-10  0.1000000E-09  0.9082241E-05
  0.1992638E+01 -0.1004615E-03  0.1100929E-10  0.1000000E-09  0.9082241E-05
  0.2068629E+01 -0.1004615E-03  0.1100929E-10  0.1000000E-09  0.9082241E-05
  0.2105542E+01 -0.1004615E-03  0.1100929E-10  0.1000000E-09  0.9082241E-05
  0.2167308E+01 -0.1004615E-03  0.1100929E-10  0.1000000E-09  0.9082241E-05
  0.2261658E+01 -0.1004615E-03  0.1100929E-10  0.1000000E-09  0.9082241E-05
  0.2301791E+01 -0.1004615E-03  0.1100929E-10  0.1000000E-09  0.9082241E-05
  0.2358548E+01 -0.1004615E-03  0.1100929E-10  0.1000000E-09  0.9082241E-05
  0.2445245E+01 -0.1004615E-03  0.1100929E-10  0.1000000E-09  0.9082241E-05
  0.2552381E+01 -0.1004615E-03  0.1100929E-10  0.1000000E-09  0.9082241E-05
  0.2594574E+01 -0.1004615E-03  0.1100929E-10  0.1000000E-09  0.9082241E-05
  0.2665177E+01 -0.1004615E-03  0.1100929E-10  0.1000000E-09  0.9082241E-05
  0.2773025E+01 -0.1004615E-03  0.1100929E-10  0.1000000E-09  0.9082241E-05
  0.2815578E+01 -0.1004615E-03  0.1100929E-10  0.1000000E-09  0.9082241E-05
  0.2880579E+01 -0.1004615E-03  0.1100929E-10  0.1000000E-09  0.9082241E-05
  0.2979870E+01 -0.1004615E-03  0.1100929E-10  0.1000000E-09  0.9082241E-05
  0.3023444E+01 -0.1004615E-03  0.1100929E-10  0.1000000E-09  0.9082241E-05
  0.3081086E+01 -0.1004615E-03  0.1100929E-10  0.1000000E-09  0.9082241E-05
  0.3169137E+01 -0.1004615E-03  0.1100929E-10  0.1000000E-09  0.9082241E-05
  0.3272013E+01 -0.1004615E-03  0.1100929E-10  0.1000000E-09  0.9082241E-05
  0.3314929E+01 -0.1004615E-03  0.1100929E-10  0.1000000E-09  0.9082241E-05
  0.3386742E+01 -0.1004615E-03  0.1100929E-10  0.1000000E-09  0.9082241E-05
  0.3496438E+01 -0.1004615E-03  0.1100929E-10  0.1000000E-09  0.9082241E-05
  0.3539964E+01 -0.1004615E-03  0.1100929E-10  0.1000001E-09  0.9082241E-05
  0.3606451E+01 -0.1004615E-03  0.1100929E-10  0.1000001E-09  0.9082241E-05
  0.3708013E+01 -0.1004615E-03  0.1100929E-10  0.1000003E-09  0.9082241E-05
  0.3750766E+01 -0.1004615E-03  0.1100929E-10  0.1000004E-09  0.9082241E-05
  0.3811229E+01 -0.1004615E-03  0.1100929E-10  0.1000007E-09  0.9082241E-05
  0.3903588E+01 -0.1004615E-03  0.1100929E-10  0.1000014E-09  0.9082241E-05
  0.3993021E+01 -0.1004615E-03  0.1100929E-10  0.1000027E-09  0.9082241E-05
  0.4034826E+01 -0.1004615E-03  0.1100929E-10  0.1000035E-09  0.9082241E-05
  0.4104778E+01 -0.1004615E-03  0.1100929E-10  0.1000054E-09  0.9082241E-05
  0.4211631E+01 -0.1004615E-03  0.1100929E-10  0.1000118E-09  0.9082241E-05
  0.4254455E+01 -0.1004615E-03  0.1100929E-10  0.1000150E-09  0.9082241E-05
  0.4319869E+01 -0.1004615E-03  0.1100929E-10  0.1000222E-09  0.9082241E-05
  0.4419790E+01 -0.1004615E-03  0.1100929E-10  0.1000429E-09  0.9082241E-05
  0.4463934E+01 -0.1004615E-03  0.1100929E-10  0.1000545E-09  0.9082241E-05
  0.4522331E+01 -0.1004615E-03  0.1100929E-10  0.1000754E-09  0.9082241E-05
  0.4611534E+01 -0.1004615E-03  0.1100929E-10  0.1001289E-09  0.9082241E-05
  0.4709363E+01 -0.1004615E-03  0.1100929E-10  0.1002320E-09  0.9082241E-05
  0.4751939E+01 -0.1004615E-03  0.1100929E-10  0.1002871E-09  0.9082241E-05
  0.4823180E+01 -0.1004615E-03  0.1100929E-10  0.1004202E-09  0.9082241E-05
  0.4932004E+01 -0.1004615E-03  0.1100929E-10  0.1007928E-09  0.9082241E-05
  0.4975670E+01 -0.1004615E-03  0.1100929E-10  0.1009754E-09  0.9082241E-05
  0.5000000E+01 -0.1004615E-03  0.1100929E-10  0.1010884E-09  0.9082241E-05
  0.5040712E+01 -0.1004615E-03  0.1100929E-10  0.1013154E-09  0.9082241E-05
  0.5108836E+01 -0.1004615E-03  0.1100929E-10  0.1018393E-09  0.9082241E-05
  0.5179762E+01 -0.1004615E-03  0.1100929E-10  0.1025984E-09  0.9082241E-05
  0.5217560E+01 -0.1004615E-03  0.1100929E-10  0.1030738E-09  0.9082241E-05
  0.5275296E+01 -0.1004615E-03  0.1100929E-10  0.1040105E-09  0.9082241E-05
  0.5363490E+01 -0.1004615E-03  0.1100929E-10  0.1061654E-09  0.9082241E-05
  0.5414131E+01 -0.1004615E-03  0.1100929E-10  0.1076947E-09  0.9082241E-05
  0.5458317E+01 -0.1004615E-03  0.1100929E-10  0.1092929E-09  0.9082241E-05
  0.5525812E+01 -0.1004615E-03  0.1100929E-10  0.1125406E-09  0.9082242E-05
  0.5628914E+01 -0.1004615E-03  0.1100929E-10  0.1203994E-09  0.9082242E-05
  0.5671212E+01 -0.1004615E-03  0.1100929E-10  0.1241925E-09  0.9082242E-05
  0.5735824E+01 -0.1004615E-03  0.1100929E-10  0.1316754E-09  0.9082242E-05
  0.5834521E+01 -0.1004615E-03  0.1100929E-10  0.1488827E-09  0.9082243E-05
  0.5899001E+01 -0.1004614E-03  0.1100929E-10  0.1632230E-09  0.9082244E-05
  0.5941368E+01 -0.1004614E-03  0.1100929E-10  0.1741882E-09  0.9082245E-05
  0.6006086E+01 -0.1004614E-03  0.1100929E-10  0.1954348E-09  0.9082246E-05
  0.6104943E+01 -0.1004614E-03  0.1100929E-10  0.2427918E-09  0.9082248E-05
  0.6146296E+01 -0.1004614E-03  0.1100929E-10  0.2655734E-09  0.9082249E-05
  0.6209464E+01 -0.1004613E-03  0.1100929E-10  0.3088707E-09  0.9082252E-05
  0.6305954E+01 -0.1004613E-03  0.1100929E-10  0.4022834E-09  0.9082257E-05
  0.6378782E+01 -0.1004612E-03  0.1100929E-10  0.4922574E-09  0.9082262E-05
  0.6420098E+01 -0.1004612E-03  0.1100929E-10  0.5503666E-09  0.9082265E-05
  0.6483210E+01 -0.1004611E-03  0.1100929E-10  0.6589967E-09  0.9082272E-05
  0.6579614E+01 -0.1004609E-03  0.1100929E-10  0.8869131E-09  0.9082285E-05
  0.6620579E+01 -0.1004609E-03  0.1100929E-10  0.9962809E-09  0.9082292E-05
  0.6678513E+01 -0.1004607E-03  0.1100929E-10  0.1180316E-08  0.9082303E-05
  0.6767008E+01 -0.1004604E-03  0.1100930E-10  0.1549169E-08  0.9082326E-05
  0.6857383E+01 -0.1004601E-03  0.1100930E-10  0.2042764E-08  0.9082358E-05
  0.6899221E+01 -0.1004599E-03  0.1100930E-10  0.2299088E-08  0.9082374E-05
  0.6969229E+01 -0.1004594E-03  0.1100931E-10  0.2821053E-08  0.9082408E-05
  0.7076168E+01 -0.1004586E-03  0.1100932E-10  0.3903965E-08  0.9082482E-05
  0.7119434E+01 -0.1004581E-03  0.1100932E-10  0.4393791E-08  0.9082515E-05
  0.7185523E+01 -0.1004574E-03  0.1100933E-10  0.5282819E-08  0.9082577E-05
  0.7286476E+01 -0.1004559E-03  0.1100934E-10  0.7057382E-08  0.9082703E-05
  0.7330259E+01 -0.1004551E-03  0.1100935E-10  0.7913147E-08  0.9082764E-05
  0.7392178E+01 -0.1004539E-03  0.1100936E-10  0.9320328E-08  0.9082866E-05
  0.7486761E+01 -0.1004514E-03  0.1100939E-10  0.1203369E-07  0.9083068E-05
  0.7570858E+01 -0.1004487E-03  0.1100941E-10  0.1497669E-07  0.9083291E-05
  0.7612522E+01 -0.1004472E-03  0.1100943E-10  0.1657597E-07  0.9083414E-05
  0.7682240E+01 -0.1004442E-03  0.1100946E-10  0.1970520E-07  0.9083657E-05
  0.7788735E+01 -0.1004383E-03  0.1100952E-10  0.2578515E-07  0.9084143E-05
  0.7831858E+01 -0.1004357E-03  0.1100954E-10  0.2847734E-07  0.9084359E-05
  0.7897728E+01 -0.1004310E-03  0.1100959E-10  0.3319414E-07  0.9084745E-05
  0.7998347E+01 -0.1004220E-03  0.1100968E-10  0.4208371E-07  0.9085488E-05
  0.8042283E+01 -0.1004176E-03  0.1100972E-10  0.4631076E-07  0.9085845E-05
  0.8104417E+01 -0.1004106E-03  0.1100979E-10  0.5305318E-07  0.9086422E-05
  0.8199330E+01 -0.1003975E-03  0.1100992E-10  0.6543056E-07  0.9087503E-05
  0.8283365E+01 -0.1003836E-03  0.1101006E-10  0.7824290E-07  0.9088643E-05
  0.8325058E+01 -0.1003762E-03  0.1101014E-10  0.8508441E-07  0.9089257E-05
  0.8394824E+01 -0.1003619E-03  0.1101028E-10  0.9803392E-07  0.9090436E-05
  0.8501393E+01 -0.1003349E-03  0.1101055E-10  0.1218848E-06  0.9092659E-05
  0.8544575E+01 -0.1003230E-03  0.1101067E-10  0.1322567E-06  0.9093635E-05
  0.8610537E+01 -0.1003026E-03  0.1101087E-10  0.1498981E-06  0.9095316E-05
  0.8711295E+01 -0.1002652E-03  0.1101125E-10  0.1816085E-06  0.9098403E-05
  0.8755105E+01 -0.1002476E-03  0.1101142E-10  0.1963447E-06  0.9099851E-05
  0.8817061E+01 -0.1002201E-03  0.1101170E-10  0.2192233E-06  0.9102126E-05
  0.8911701E+01 -0.1001707E-03  0.1101219E-10  0.2594606E-06  0.9106206E-05
  0.8995064E+01 -0.1001208E-03  0.1101269E-10  0.2993882E-06  0.9110325E-05
  0.9036720E+01 -0.1000943E-03  0.1101296E-10  0.3205073E-06  0.9112521E-05
  0.9106423E+01 -0.1000448E-03  0.1101345E-10  0.3593494E-06  0.9116617E-05
  0.9212896E+01 -0.9995590E-04  0.1101435E-10  0.4277121E-06  0.9123984E-05
  0.9256069E+01 -0.9991756E-04  0.1101473E-10  0.4569741E-06  0.9127165E-05
  0.9322016E+01 -0.9985325E-04  0.1101538E-10  0.5054799E-06  0.9132506E-05
  0.9422753E+01 -0.9974014E-04  0.1101652E-10  0.5892055E-06  0.9141915E-05
  0.9466585E+01 -0.9968799E-04  0.1101705E-10  0.6275217E-06  0.9146259E-05
  0.9528574E+01 -0.9960802E-04  0.1101786E-10  0.6856538E-06  0.9152930E-05
  0.9623263E+01 -0.9947003E-04  0.1101926E-10  0.7842676E-06  0.9164462E-05
  0.9706261E+01 -0.9933606E-04  0.1102063E-10  0.8786498E-06  0.9175687E-05
  0.9747908E+01 -0.9926545E-04  0.1102135E-10  0.9280588E-06  0.9181614E-05
  0.9817596E+01 -0.9913726E-04  0.1102266E-10  0.1016704E-05  0.9192394E-05
  0.9924047E+01 -0.9891618E-04  0.1102492E-10  0.1166796E-05  0.9211045E-05
  0.9967231E+01 -0.9882222E-04  0.1102589E-10  0.1230150E-05  0.9218994E-05
  0.1000000E+02 -0.9874841E-04  0.1102665E-10  0.1279665E-05  0.9225249E-05
  0.1005483E+02 -0.9861760E-04  0.1102800E-10  0.1366646E-05  0.9236354E-05
  0.1014659E+02 -0.9837712E-04  0.1103049E-10  0.1524138E-05  0.9256841E-05
  0.1018608E+02 -0.9826953E-04  0.1103161E-10  0.1594167E-05  0.9266035E-05
  0.1024641E+02 -0.9809536E-04  0.1103343E-10  0.1706466E-05  0.9280959E-05
  0.1033855E+02 -0.9780528E-04  0.1103647E-10  0.1890718E-05  0.9305921E-05
  0.1041559E+02 -0.9754546E-04  0.1103921E-10  0.2053766E-05  0.9328393E-05
  0.1045665E+02 -0.9740199E-04  0.1104072E-10  0.2143248E-05  0.9340849E-05
  0.1052535E+02 -0.9714751E-04  0.1104343E-10  0.2300266E-05  0.9363024E-05
  0.1063029E+02 -0.9672405E-04  0.1104796E-10  0.2557214E-05  0.9400159E-05
  0.1067298E+02 -0.9654604E-04  0.1104988E-10  0.2664553E-05  0.9415857E-05
  0.1073818E+02 -0.9626034E-04  0.1105297E-10  0.2835115E-05  0.9441162E-05
  0.1083778E+02 -0.9579107E-04  0.1105808E-10  0.3110920E-05  0.9483023E-05
  0.1088338E+02 -0.9556931E-04  0.1106052E-10  0.3240393E-05  0.9502934E-05
  0.1094371E+02 -0.9526372E-04  0.1106389E-10  0.3417185E-05  0.9530510E-05
  0.1103586E+02 -0.9476811E-04  0.1106941E-10  0.3699830E-05  0.9575575E-05
  0.1112730E+02 -0.9424797E-04  0.1107527E-10  0.3992306E-05  0.9623331E-05
  0.1116942E+02 -0.9400239E-04  0.1107806E-10  0.4129562E-05  0.9646044E-05
  0.1123990E+02 -0.9357456E-04  0.1108295E-10  0.4366085E-05  0.9685870E-05
  0.1134757E+02 -0.9288199E-04  0.1109096E-10  0.4742504E-05  0.9751044E-05
  0.1139126E+02 -0.9259468E-04  0.1109432E-10  0.4897682E-05  0.9778339E-05
  0.1145799E+02 -0.9214104E-04  0.1109966E-10  0.5140151E-05  0.9821747E-05
  0.1155993E+02 -0.9141436E-04  0.1110834E-10  0.5522261E-05  0.9892092E-05
  0.1160316E+02 -0.9110042E-04  0.1111213E-10  0.5686303E-05  0.9922796E-05
  0.1166428E+02 -0.9064466E-04  0.1111768E-10  0.5922140E-05  0.9967709E-05
  0.1175765E+02 -0.8992180E-04  0.1112660E-10  0.6290511E-05  0.1003978E-04
  0.1183581E+02 -0.8929873E-04  0.1113440E-10  0.6604059E-05  0.1010275E-04
  0.1187716E+02 -0.8896429E-04  0.1113863E-10  0.6771287E-05  0.1013688E-04
  0.1194634E+02 -0.8839115E-04  0.1114596E-10  0.7054563E-05  0.1019590E-04
  0.1205203E+02 -0.8748584E-04  0.1115773E-10  0.7493905E-05  0.1029054E-04
  0.1209496E+02 -0.8711354E-04  0.1116264E-10  0.7673370E-05  0.1032997E-04
  0.1216053E+02 -0.8653413E-04  0.1117037E-10  0.7949488E-05  0.1039194E-04
  0.1226070E+02 -0.8562571E-04  0.1118270E-10  0.8374632E-05  0.1049061E-04
  0.1230516E+02 -0.8521839E-04  0.1118831E-10  0.8563862E-05  0.1053547E-04
  0.1236803E+02 -0.8463395E-04  0.1119646E-10  0.8832265E-05  0.1060050E-04
  0.1246406E+02 -0.8372312E-04  0.1120938E-10  0.9242994E-05  0.1070347E-04
  0.1254638E+02 -0.8293052E-04  0.1122086E-10  0.9594903E-05  0.1079471E-04
  0.1258807E+02 -0.8252640E-04  0.1122680E-10  0.9772982E-05  0.1084184E-04
  0.1265782E+02 -0.8184243E-04  0.1123698E-10  0.1007019E-04  0.1092254E-04
  0.1276437E+02 -0.8078193E-04  0.1125311E-10  0.1052096E-04  0.1105007E-04
  0.1280763E+02 -0.8034931E-04  0.1125981E-10  0.1070336E-04  0.1110295E-04
  0.1287372E+02 -0.7968338E-04  0.1127027E-10  0.1098019E-04  0.1118535E-04
  0.1297467E+02 -0.7865619E-04  0.1128675E-10  0.1139777E-04  0.1131488E-04
  0.1301819E+02 -0.7821208E-04  0.1129401E-10  0.1157673E-04  0.1137182E-04
  0.1307973E+02 -0.7758112E-04  0.1130446E-10  0.1182745E-04  0.1145370E-04
  0.1317375E+02 -0.7661197E-04  0.1132086E-10  0.1220409E-04  0.1158179E-04
  0.1325469E+02 -0.7577503E-04  0.1133535E-10  0.1252321E-04  0.1169474E-04
  0.1329621E+02 -0.7534546E-04  0.1134292E-10  0.1268546E-04  0.1175357E-04
  0.1336568E+02 -0.7462536E-04  0.1135579E-10  0.1295271E-04  0.1185353E-04
  0.1347180E+02 -0.7352439E-04  0.1137597E-10  0.1335014E-04  0.1200969E-04
  0.1351491E+02 -0.7307757E-04  0.1138433E-10  0.1350978E-04  0.1207424E-04
  0.1358077E+02 -0.7239543E-04  0.1139730E-10  0.1374917E-04  0.1217415E-04
  0.1368138E+02 -0.7135585E-04  0.1141753E-10  0.1410385E-04  0.1232962E-04
  0.1372519E+02 -0.7090424E-04  0.1142651E-10  0.1425617E-04  0.1239841E-04
  0.1378715E+02 -0.7026710E-04  0.1143936E-10  0.1446722E-04  0.1249677E-04
  0.1388180E+02 -0.6929844E-04  0.1145937E-10  0.1477907E-04  0.1264933E-04
  0.1396341E+02 -0.6846789E-04  0.1147697E-10  0.1503995E-04  0.1278314E-04
  0.1400500E+02 -0.6804623E-04  0.1148607E-10  0.1517078E-04  0.1285216E-04
  0.1407458E+02 -0.6734420E-04  0.1150147E-10  0.1538373E-04  0.1296875E-04
  0.1418088E+02 -0.6628141E-04  0.1152541E-10  0.1569489E-04  0.1314932E-04
  0.1422407E+02 -0.6585188E-04  0.1153531E-10  0.1581897E-04  0.1322374E-04
  0.1429004E+02 -0.6519991E-04  0.1155057E-10  0.1600303E-04  0.1333831E-04
  0.1439082E+02 -0.6421453E-04  0.1157424E-10  0.1627134E-04  0.1351530E-04
  0.1443445E+02 -0.6379060E-04  0.1158464E-10  0.1638509E-04  0.1359290E-04
  0.1449615E+02 -0.6319537E-04  0.1159949E-10  0.1654115E-04  0.1370337E-04
  0.1459039E+02 -0.6229661E-04  0.1162244E-10  0.1676843E-04  0.1387361E-04
  0.1467141E+02 -0.6153275E-04  0.1164248E-10  0.1695565E-04  0.1402166E-04
  0.1471294E+02 -0.6114373E-04  0.1165288E-10  0.1704951E-04  0.1409829E-04
  0.1478244E+02 -0.6049892E-04  0.1167040E-10  0.1720069E-04  0.1422715E-04
  0.1488861E+02 -0.5952891E-04  0.1169749E-10  0.1741816E-04  0.1442550E-04
  0.1493176E+02 -0.5913786E-04  0.1170866E-10  0.1750434E-04  0.1450704E-04
  0.1499767E+02 -0.5854646E-04  0.1172583E-10  0.1763094E-04  0.1463212E-04
  0.1509835E+02 -0.5765721E-04  0.1175232E-10  0.1781286E-04  0.1482430E-04
  0.1514205E+02 -0.5727462E-04  0.1176397E-10  0.1788968E-04  0.1490855E-04
  0.1520384E+02 -0.5673901E-04  0.1178054E-10  0.1799414E-04  0.1502811E-04
  0.1529823E+02 -0.5593360E-04  0.1180606E-10  0.1814426E-04  0.1521156E-04
  0.1537931E+02 -0.5525195E-04  0.1182824E-10  0.1826645E-04  0.1537035E-04
  0.1542085E+02 -0.5490559E-04  0.1183971E-10  0.1832732E-04  0.1545232E-04
  0.1549038E+02 -0.5433296E-04  0.1185902E-10  0.1842443E-04  0.1558976E-04
  0.1559657E+02 -0.5347460E-04  0.1188872E-10  0.1856217E-04  0.1580042E-04
  0.1563974E+02 -0.5312908E-04  0.1190095E-10  0.1861644E-04  0.1588684E-04
  0.1570567E+02 -0.5260757E-04  0.1191971E-10  0.1869546E-04  0.1601907E-04
  0.1580640E+02 -0.5182553E-04  0.1194855E-10  0.1880754E-04  0.1622155E-04
  0.1585003E+02 -0.5149007E-04  0.1196119E-10  0.1885452E-04  0.1630998E-04
  0.1591175E+02 -0.5102113E-04  0.1197914E-10  0.1891790E-04  0.1643522E-04
  0.1600601E+02 -0.5031737E-04  0.1200670E-10  0.1900791E-04  0.1662683E-04
  0.1608682E+02 -0.4972390E-04  0.1203055E-10  0.1908031E-04  0.1679192E-04
  0.1612835E+02 -0.4942174E-04  0.1204292E-10  0.1911629E-04  0.1687724E-04
  0.1619784E+02 -0.4892274E-04  0.1206367E-10  0.1917319E-04  0.1702006E-04
  0.1630398E+02 -0.4817580E-04  0.1209554E-10  0.1925289E-04  0.1723841E-04
  0.1634713E+02 -0.4787529E-04  0.1210864E-10  0.1928413E-04  0.1732785E-04
  0.1641305E+02 -0.4742205E-04  0.1212871E-10  0.1932926E-04  0.1746451E-04
  0.1651374E+02 -0.4674296E-04  0.1215951E-10  0.1939253E-04  0.1767335E-04
  0.1655739E+02 -0.4645165E-04  0.1217300E-10  0.1941892E-04  0.1776447E-04
  0.1661911E+02 -0.4604458E-04  0.1219214E-10  0.1945427E-04  0.1789339E-04
  0.1671340E+02 -0.4543393E-04  0.1222149E-10  0.1950394E-04  0.1809034E-04
  0.1679413E+02 -0.4491970E-04  0.1224683E-10  0.1954349E-04  0.1825958E-04
  0.1683565E+02 -0.4465771E-04  0.1225996E-10  0.1956306E-04  0.1834703E-04
  0.1690514E+02 -0.4422504E-04  0.1228199E-10  0.1959378E-04  0.1849330E-04
  0.1701128E+02 -0.4357729E-04  0.1231578E-10  0.1963631E-04  0.1871669E-04
  0.1705443E+02 -0.4331667E-04  0.1232966E-10  0.1965291E-04  0.1880809E-04
  0.1712035E+02 -0.4292350E-04  0.1235093E-10  0.1967671E-04  0.1894770E-04
  0.1722105E+02 -0.4233411E-04  0.1238354E-10  0.1970972E-04  0.1916090E-04
  0.1726467E+02 -0.4208140E-04  0.1239780E-10  0.1972342E-04  0.1925379E-04
  0.1732636E+02 -0.4172811E-04  0.1241803E-10  0.1974165E-04  0.1938517E-04
  0.1742060E+02 -0.4119770E-04  0.1244906E-10  0.1976702E-04  0.1958581E-04
  0.1750116E+02 -0.4075138E-04  0.1247579E-10  0.1978702E-04  0.1975790E-04
  0.1754268E+02 -0.4052349E-04  0.1248967E-10  0.1979689E-04  0.1984693E-04
  0.1761215E+02 -0.4014686E-04  0.1251294E-10  0.1981228E-04  0.1999586E-04
  0.1771826E+02 -0.3958222E-04  0.1254867E-10  0.1983337E-04  0.2022336E-04
  0.1776141E+02 -0.3935491E-04  0.1256334E-10  0.1984156E-04  0.2031641E-04
  0.1782732E+02 -0.3901165E-04  0.1258582E-10  0.1985324E-04  0.2045856E-04
  0.1792800E+02 -0.3849625E-04  0.1262033E-10  0.1986927E-04  0.2067578E-04
  0.1797161E+02 -0.3827512E-04  0.1263542E-10  0.1987590E-04  0.2077039E-04
  0.1803330E+02 -0.3796565E-04  0.1265684E-10  0.1988466E-04  0.2090427E-04
  0.1812752E+02 -0.3750020E-04  0.1268971E-10  0.1989675E-04  0.2110891E-04
  0.1820799E+02 -0.3710837E-04  0.1271802E-10  0.1990621E-04  0.2128431E-04
  0.1824950E+02 -0.3690792E-04  0.1273274E-10  0.1991086E-04  0.2137517E-04
  0.1831895E+02 -0.3657614E-04  0.1275745E-10  0.1991806E-04  0.2152728E-04
  0.1842505E+02 -0.3607752E-04  0.1279545E-10  0.1992784E-04  0.2176000E-04
  0.1846820E+02 -0.3587658E-04  0.1281106E-10  0.1993163E-04  0.2185521E-04
  0.1853411E+02 -0.3557266E-04  0.1283500E-10  0.1993699E-04  0.2200082E-04
  0.1863478E+02 -0.3511511E-04  0.1287183E-10  0.1994429E-04  0.2222371E-04
  0.1867839E+02 -0.3491865E-04  0.1288794E-10  0.1994729E-04  0.2232081E-04
  0.1874005E+02 -0.3464323E-04  0.1291084E-10  0.1995124E-04  0.2245837E-04
  0.1883424E+02 -0.3422785E-04  0.1294606E-10  0.1995665E-04  0.2266907E-04
  0.1891459E+02 -0.3387772E-04  0.1297642E-10  0.1996085E-04  0.2284977E-04
  0.1895609E+02 -0.3369817E-04  0.1299224E-10  0.1996291E-04  0.2294356E-04
  0.1902553E+02 -0.3340028E-04  0.1301885E-10  0.1996608E-04  0.2310087E-04
  0.1913161E+02 -0.3295095E-04  0.1305990E-10  0.1997035E-04  0.2334227E-04
  0.1917476E+02 -0.3276961E-04  0.1307679E-10  0.1997199E-04  0.2344113E-04
  0.1924066E+02 -0.3249466E-04  0.1310275E-10  0.1997431E-04  0.2359263E-04
  0.1934132E+02 -0.3207913E-04  0.1314284E-10  0.1997744E-04  0.2382535E-04
  0.1938492E+02 -0.3190045E-04  0.1316039E-10  0.1997872E-04  0.2392684E-04
  0.1944657E+02 -0.3164933E-04  0.1318540E-10  0.1998041E-04  0.2407094E-04
  0.1954074E+02 -0.3126904E-04  0.1322404E-10  0.1998269E-04  0.2429250E-04
  0.1962099E+02 -0.3094771E-04  0.1325743E-10  0.1998445E-04  0.2448291E-04
  0.1966249E+02 -0.3078244E-04  0.1327488E-10  0.1998531E-04  0.2458201E-04
  0.1973192E+02 -0.3050735E-04  0.1330433E-10  0.1998663E-04  0.2474876E-04
  0.1983799E+02 -0.3009017E-04  0.1335003E-10  0.1998839E-04  0.2500599E-04
  0.1988113E+02 -0.2992145E-04  0.1336887E-10  0.1998907E-04  0.2511155E-04
  0.1994703E+02 -0.2966473E-04  0.1339795E-10  0.1999001E-04  0.2527389E-04
  0.2000000E+02 -0.2945919E-04  0.1342160E-10  0.1999073E-04  0.2540538E-04
  0.2008092E+02 -0.2914639E-04  0.1345824E-10  0.1999170E-04  0.2560814E-04
  0.2011909E+02 -0.2899941E-04  0.1347572E-10  0.1999214E-04  0.2570454E-04
  0.2018295E+02 -0.2875399E-04  0.1350532E-10  0.1999281E-04  0.2586712E-04
  0.2028051E+02 -0.2837998E-04  0.1355140E-10  0.1999372E-04  0.2611889E-04
  0.2032358E+02 -0.2821543E-04  0.1357207E-10  0.1999409E-04  0.2623121E-04
  0.2038450E+02 -0.2798293E-04  0.1360168E-10  0.1999458E-04  0.2639157E-04
  0.2047756E+02 -0.2762778E-04  0.1364787E-10  0.1999525E-04  0.2664036E-04
  0.2056349E+02 -0.2730000E-04  0.1369157E-10  0.1999579E-04  0.2687417E-04
  0.2060520E+02 -0.2714118E-04  0.1371312E-10  0.1999604E-04  0.2698894E-04
  0.2067500E+02 -0.2687488E-04  0.1374983E-10  0.1999642E-04  0.2718360E-04
  0.2078162E+02 -0.2646610E-04  0.1380762E-10  0.1999692E-04  0.2748793E-04
  0.2082501E+02 -0.2629994E-04  0.1383163E-10  0.1999711E-04  0.2761359E-04
  0.2089130E+02 -0.2604508E-04  0.1386904E-10  0.1999737E-04  0.2780859E-04
  0.2099256E+02 -0.2565246E-04  0.1392813E-10  0.1999773E-04  0.2811442E-04
  0.2103577E+02 -0.2548486E-04  0.1395391E-10  0.1999787E-04  0.2824703E-04
  0.2109688E+02 -0.2524638E-04  0.1399118E-10  0.1999806E-04  0.2843789E-04
  0.2119022E+02 -0.2487786E-04  0.1405018E-10  0.1999830E-04  0.2873797E-04
  0.2126804E+02 -0.2456790E-04  0.1410118E-10  0.1999849E-04  0.2899529E-04
  0.2130938E+02 -0.2440266E-04  0.1412889E-10  0.1999858E-04  0.2913437E-04
  0.2137856E+02 -0.2412287E-04  0.1417669E-10  0.1999872E-04  0.2937293E-04
  0.2148423E+02 -0.2368624E-04  0.1425353E-10  0.1999890E-04  0.2975312E-04
  0.2152722E+02 -0.2350781E-04  0.1428575E-10  0.1999897E-04  0.2991133E-04
  0.2159289E+02 -0.2323113E-04  0.1433670E-10  0.1999907E-04  0.3016002E-04
  0.2169320E+02 -0.2279689E-04  0.1441915E-10  0.1999920E-04  0.3055877E-04
  0.2173711E+02 -0.2260536E-04  0.1445652E-10  0.1999925E-04  0.3073801E-04
  0.2179920E+02 -0.2232948E-04  0.1451149E-10  0.1999932E-04  0.3099994E-04
  0.2189406E+02 -0.2189402E-04  0.1460106E-10  0.1999941E-04  0.3142256E-04
  0.2197478E+02 -0.2151313E-04  0.1468237E-10  0.1999948E-04  0.3180178E-04
  0.2201633E+02 -0.2131471E-04  0.1472589E-10  0.1999951E-04  0.3200298E-04
  0.2208585E+02 -0.2097268E-04  0.1480283E-10  0.1999956E-04  0.3235585E-04
  0.2219206E+02 -0.2042167E-04  0.1493220E-10  0.1999963E-04  0.3294098E-04
  0.2223526E+02 -0.2019422E-04  0.1498766E-10  0.1999965E-04  0.3318873E-04
  0.2230125E+02 -0.1983408E-04  0.1507808E-10  0.1999969E-04  0.3358873E-04
  0.2240206E+02 -0.1924753E-04  0.1523259E-10  0.1999973E-04  0.3426125E-04
  0.2244547E+02 -0.1898992E-04  0.1530346E-10  0.1999975E-04  0.3456520E-04
  0.2250688E+02 -0.1861025E-04  0.1541150E-10  0.1999977E-04  0.3502313E-04
  0.2260067E+02 -0.1798637E-04  0.1559893E-10  0.1999980E-04  0.3580255E-04
  0.2267998E+02 -0.1742509E-04  0.1577903E-10  0.1999983E-04  0.3653401E-04
  0.2272141E+02 -0.1712375E-04  0.1588059E-10  0.1999984E-04  0.3693918E-04
  0.2279073E+02 -0.1658489E-04  0.1607141E-10  0.1999985E-04  0.3768658E-04
  0.2289662E+02 -0.1565239E-04  0.1643267E-10  0.1999988E-04  0.3905397E-04
  0.2293970E+02 -0.1526088E-04  0.1659751E-10  0.1999989E-04  0.3965811E-04
  0.2300551E+02 -0.1461275E-04  0.1688981E-10  0.1999990E-04  0.4070039E-04
  0.2310604E+02 -0.1346973E-04  0.1747393E-10  0.1999991E-04  0.4267851E-04
  0.2314964E+02 -0.1295262E-04  0.1777209E-10  0.1999992E-04  0.4363800E-04
  0.2321129E+02 -0.1214097E-04  0.1829155E-10  0.1999993E-04  0.4523419E-04
  0.2330548E+02 -0.1070099E-04  0.1941643E-10  0.1999994E-04  0.4837327E-04
  0.2338447E+02 -0.9233383E-05  0.2167035E-10  0.1999994E-04  0.5205303E-04
  0.2342580E+02 -0.8411098E-05  0.2372696E-10  0.1999995E-04  0.5436918E-04
  0.2349496E+02 -0.6833978E-05  0.3477757E-10  0.1999995E-04  0.5942805E-04
  0.2360061E+02 -0.3171151E-05  0.7387344E-08  0.1999996E-04  0.6454307E-04
  0.2364326E+02 -0.1293324E-05  0.3125825E-07  0.1999996E-04  0.6517511E-04
  0.2370842E+02  0.1238689E-05  0.7279120E-05  0.1999997E-04  0.6261566E-04
  0.2373595E+02  0.2029699E-05  0.1244317E-04  0.1999997E-04  0.6126216E-04
  0.2378201E+02  0.2933417E-05  0.1909347E-04  0.1999997E-04  0.5953203E-04
  0.2385909E+02  0.3850299E-05  0.2706863E-04  0.1999997E-04  0.5742972E-04
  0.2398806E+02  0.4655151E-05  0.3585540E-04  0.1999998E-04  0.5504858E-04
  0.2420388E+02  0.5245091E-05  0.4444496E-04  0.1999999E-04  0.5264194E-04
  0.2456500E+02  0.5665405E-05  0.5172476E-04  0.1999999E-04  0.5077523E-04
  0.2511663E+02  0.7509883E-05  0.5584214E-04  0.2000000E-04  0.5498704E-04
  0.2595925E+02  0.2621274E-04  0.4502108E-04  0.2000000E-04  0.6974216E-04
  0.2724638E+02  0.6635956E-04  0.2240375E-04  0.2000000E-04  0.5891730E-04
  0.2921251E+02  0.9090189E-04  0.1253877E-04  0.2000000E-04  0.5200924E-04
  0.3250246E+02  0.9852174E-04  0.1031589E-04  0.2000000E-04  0.5011008E-04
  0.3750246E+02  0.9984093E-04  0.1002641E-04  0.2000000E-04  0.4979164E-04
  0.4250246E+02  0.9998328E-04  0.1000220E-04  0.2000000E-04  0.4975733E-04
  0.4750246E+02  0.9999819E-04  0.1000018E-04  0.2000000E-04  0.4975372E-04
  0.5000000E+02  0.9999959E-04  0.1000002E-04  0.2000000E-04  0.4975339E-04
