title = "dataset surfme2"
variables = "x", "y", "z","h+1","me+2","cl-1","=soh"
zone t = "T_j, T =  1.000E+01 hours", i =  101, j =    1, k =    1,  f=point
  0.0000000E+00  0.0000000E+00  0.0000000E+00  0.9999990E-04  0.1000000E-04  0.2000000E-04  0.4975331E-04
  0.0000000E+00  0.0000000E+00  0.1600000E+00  0.9999990E-04  0.1000000E-04  0.2000000E-04  0.4975331E-04
  0.0000000E+00  0.0000000E+00  0.3200000E+00  0.9999990E-04  0.1000000E-04  0.2000000E-04  0.4975331E-04
  0.0000000E+00  0.0000000E+00  0.4800000E+00  0.9999990E-04  0.1000000E-04  0.2000000E-04  0.4975331E-04
  0.0000000E+00  0.0000000E+00  0.6400000E+00  0.9999990E-04  0.1000000E-04  0.2000000E-04  0.4975331E-04
  0.0000000E+00  0.0000000E+00  0.8000000E+00  0.9999990E-04  0.1000000E-04  0.2000000E-04  0.4975331E-04
  0.0000000E+00  0.0000000E+00  0.9600000E+00  0.9999990E-04  0.1000000E-04  0.2000000E-04  0.4975331E-04
  0.0000000E+00  0.0000000E+00  0.1120000E+01  0.9999989E-04  0.1000000E-04  0.2000000E-04  0.4975331E-04
  0.0000000E+00  0.0000000E+00  0.1280000E+01  0.9999989E-04  0.1000000E-04  0.2000000E-04  0.4975331E-04
  0.0000000E+00  0.0000000E+00  0.1440000E+01  0.9999987E-04  0.1000000E-04  0.2000000E-04  0.4975332E-04
  0.0000000E+00  0.0000000E+00  0.1600000E+01  0.9999984E-04  0.1000000E-04  0.2000000E-04  0.4975332E-04
  0.0000000E+00  0.0000000E+00  0.1760000E+01  0.9999979E-04  0.1000000E-04  0.2000000E-04  0.4975334E-04
  0.0000000E+00  0.0000000E+00  0.1920000E+01  0.9999969E-04  0.1000001E-04  0.2000000E-04  0.4975336E-04
  0.0000000E+00  0.0000000E+00  0.2080000E+01  0.9999949E-04  0.1000001E-04  0.2000000E-04  0.4975341E-04
  0.0000000E+00  0.0000000E+00  0.2240000E+01  0.9999914E-04  0.1000003E-04  0.2000000E-04  0.4975349E-04
  0.0000000E+00  0.0000000E+00  0.2400000E+01  0.9999851E-04  0.1000006E-04  0.2000000E-04  0.4975365E-04
  0.0000000E+00  0.0000000E+00  0.2560000E+01  0.9999738E-04  0.1000012E-04  0.2000000E-04  0.4975392E-04
  0.0000000E+00  0.0000000E+00  0.2720000E+01  0.9999538E-04  0.1000023E-04  0.2000000E-04  0.4975441E-04
  0.0000000E+00  0.0000000E+00  0.2880000E+01  0.9999188E-04  0.1000043E-04  0.2000000E-04  0.4975526E-04
  0.0000000E+00  0.0000000E+00  0.3040000E+01  0.9998583E-04  0.1000079E-04  0.2000000E-04  0.4975674E-04
  0.0000000E+00  0.0000000E+00  0.3200000E+01  0.9997548E-04  0.1000145E-04  0.2000000E-04  0.4975926E-04
  0.0000000E+00  0.0000000E+00  0.3360000E+01  0.9995792E-04  0.1000263E-04  0.1999999E-04  0.4976353E-04
  0.0000000E+00  0.0000000E+00  0.3520000E+01  0.9992839E-04  0.1000476E-04  0.1999999E-04  0.4977072E-04
  0.0000000E+00  0.0000000E+00  0.3680000E+01  0.9987911E-04  0.1000861E-04  0.1999998E-04  0.4978271E-04
  0.0000000E+00  0.0000000E+00  0.3840000E+01  0.9979752E-04  0.1001553E-04  0.1999997E-04  0.4980257E-04
  0.0000000E+00  0.0000000E+00  0.4000000E+01  0.9966339E-04  0.1002798E-04  0.1999995E-04  0.4983521E-04
  0.0000000E+00  0.0000000E+00  0.4160000E+01  0.9944439E-04  0.1005036E-04  0.1999993E-04  0.4988854E-04
  0.0000000E+00  0.0000000E+00  0.4320000E+01  0.9908918E-04  0.1009061E-04  0.1999989E-04  0.4997518E-04
  0.0000000E+00  0.0000000E+00  0.4480000E+01  0.9851678E-04  0.1016299E-04  0.1999982E-04  0.5011521E-04
  0.0000000E+00  0.0000000E+00  0.4640000E+01  0.9760054E-04  0.1029313E-04  0.1999973E-04  0.5034054E-04
  0.0000000E+00  0.0000000E+00  0.4800000E+01  0.9614445E-04  0.1052693E-04  0.1999959E-04  0.5070188E-04
  0.0000000E+00  0.0000000E+00  0.4960000E+01  0.9384966E-04  0.1094630E-04  0.1999939E-04  0.5127991E-04
  0.0000000E+00  0.0000000E+00  0.5120000E+01  0.9027084E-04  0.1169620E-04  0.1999909E-04  0.5220328E-04
  0.0000000E+00  0.0000000E+00  0.5280000E+01  0.8476956E-04  0.1302923E-04  0.1999867E-04  0.5367709E-04
  0.0000000E+00  0.0000000E+00  0.5440000E+01  0.7649499E-04  0.1537289E-04  0.1999807E-04  0.5602310E-04
  0.0000000E+00  0.0000000E+00  0.5600000E+01  0.6448754E-04  0.1940422E-04  0.1999722E-04  0.5970490E-04
  0.0000000E+00  0.0000000E+00  0.5760000E+01  0.4817527E-04  0.2600727E-04  0.1999604E-04  0.6511737E-04
  0.0000000E+00  0.0000000E+00  0.5920000E+01  0.2892746E-04  0.3547099E-04  0.1999441E-04  0.7082825E-04
  0.0000000E+00  0.0000000E+00  0.6080000E+01  0.1294289E-04  0.4387698E-04  0.1999220E-04  0.6809995E-04
  0.0000000E+00  0.0000000E+00  0.6240000E+01  0.5782743E-05  0.4353811E-04  0.1998920E-04  0.5523017E-04
  0.0000000E+00  0.0000000E+00  0.6400000E+01  0.3392393E-05  0.3434509E-04  0.1998518E-04  0.4888337E-04
  0.0000000E+00  0.0000000E+00  0.6560000E+01  0.1658794E-05  0.1685704E-04  0.1997986E-04  0.4926852E-04
  0.0000000E+00  0.0000000E+00  0.6720000E+01 -0.4782633E-05  0.7027198E-08  0.1997287E-04  0.5522118E-04
  0.0000000E+00  0.0000000E+00  0.6880000E+01 -0.1148851E-04  0.1990319E-10  0.1996377E-04  0.4660170E-04
  0.0000000E+00  0.0000000E+00  0.7040000E+01 -0.1550881E-04  0.1649265E-10  0.1995205E-04  0.3927339E-04
  0.0000000E+00  0.0000000E+00  0.7200000E+01 -0.1846872E-04  0.1545306E-10  0.1993707E-04  0.3519696E-04
  0.0000000E+00  0.0000000E+00  0.7360000E+01 -0.2089119E-04  0.1482163E-10  0.1991811E-04  0.3244107E-04
  0.0000000E+00  0.0000000E+00  0.7520000E+01 -0.2300582E-04  0.1437916E-10  0.1989430E-04  0.3036561E-04
  0.0000000E+00  0.0000000E+00  0.7680000E+01 -0.2493220E-04  0.1404143E-10  0.1986469E-04  0.2869332E-04
  0.0000000E+00  0.0000000E+00  0.7840000E+01 -0.2673979E-04  0.1376878E-10  0.1982816E-04  0.2728343E-04
  0.0000000E+00  0.0000000E+00  0.8000000E+01 -0.2847222E-04  0.1353996E-10  0.1978348E-04  0.2605634E-04
  0.0000000E+00  0.0000000E+00  0.8160000E+01 -0.3015855E-04  0.1334248E-10  0.1972929E-04  0.2496347E-04
  0.0000000E+00  0.0000000E+00  0.8320000E+01 -0.3181903E-04  0.1316848E-10  0.1966410E-04  0.2397337E-04
  0.0000000E+00  0.0000000E+00  0.8480000E+01 -0.3346833E-04  0.1301275E-10  0.1958631E-04  0.2306474E-04
  0.0000000E+00  0.0000000E+00  0.8640000E+01 -0.3511729E-04  0.1287167E-10  0.1949424E-04  0.2222264E-04
  0.0000000E+00  0.0000000E+00  0.8800000E+01 -0.3677411E-04  0.1274267E-10  0.1938612E-04  0.2143626E-04
  0.0000000E+00  0.0000000E+00  0.8960000E+01 -0.3844498E-04  0.1262383E-10  0.1926016E-04  0.2069764E-04
  0.0000000E+00  0.0000000E+00  0.9120000E+01 -0.4013459E-04  0.1251372E-10  0.1911452E-04  0.2000075E-04
  0.0000000E+00  0.0000000E+00  0.9280000E+01 -0.4184636E-04  0.1241124E-10  0.1894742E-04  0.1934099E-04
  0.0000000E+00  0.0000000E+00  0.9440000E+01 -0.4358268E-04  0.1231551E-10  0.1875713E-04  0.1871481E-04
  0.0000000E+00  0.0000000E+00  0.9600000E+01 -0.4534500E-04  0.1222584E-10  0.1854204E-04  0.1811938E-04
  0.0000000E+00  0.0000000E+00  0.9760000E+01 -0.4713393E-04  0.1214168E-10  0.1830070E-04  0.1755251E-04
  0.0000000E+00  0.0000000E+00  0.9920000E+01 -0.4894928E-04  0.1206256E-10  0.1803185E-04  0.1701240E-04
  0.0000000E+00  0.0000000E+00  0.1008000E+02 -0.5079011E-04  0.1198811E-10  0.1773448E-04  0.1649763E-04
  0.0000000E+00  0.0000000E+00  0.1024000E+02 -0.5265475E-04  0.1191800E-10  0.1740790E-04  0.1600702E-04
  0.0000000E+00  0.0000000E+00  0.1040000E+02 -0.5454082E-04  0.1185197E-10  0.1705170E-04  0.1553958E-04
  0.0000000E+00  0.0000000E+00  0.1056000E+02 -0.5644527E-04  0.1178977E-10  0.1666588E-04  0.1509450E-04
  0.0000000E+00  0.0000000E+00  0.1072000E+02 -0.5836439E-04  0.1173119E-10  0.1625078E-04  0.1467106E-04
  0.0000000E+00  0.0000000E+00  0.1088000E+02 -0.6029385E-04  0.1167606E-10  0.1580718E-04  0.1426863E-04
  0.0000000E+00  0.0000000E+00  0.1104000E+02 -0.6222878E-04  0.1162421E-10  0.1533623E-04  0.1388663E-04
  0.0000000E+00  0.0000000E+00  0.1120000E+02 -0.6416380E-04  0.1157548E-10  0.1483950E-04  0.1352454E-04
  0.0000000E+00  0.0000000E+00  0.1136000E+02 -0.6609308E-04  0.1152974E-10  0.1431895E-04  0.1318185E-04
  0.0000000E+00  0.0000000E+00  0.1152000E+02 -0.6801044E-04  0.1148685E-10  0.1377689E-04  0.1285805E-04
  0.0000000E+00  0.0000000E+00  0.1168000E+02 -0.6990946E-04  0.1144669E-10  0.1321597E-04  0.1255266E-04
  0.0000000E+00  0.0000000E+00  0.1184000E+02 -0.7178355E-04  0.1140914E-10  0.1263912E-04  0.1226518E-04
  0.0000000E+00  0.0000000E+00  0.1200000E+02 -0.7362607E-04  0.1137408E-10  0.1204952E-04  0.1199509E-04
  0.0000000E+00  0.0000000E+00  0.1216000E+02 -0.7543044E-04  0.1134141E-10  0.1145051E-04  0.1174188E-04
  0.0000000E+00  0.0000000E+00  0.1232000E+02 -0.7719026E-04  0.1131102E-10  0.1084557E-04  0.1150502E-04
  0.0000000E+00  0.0000000E+00  0.1248000E+02 -0.7889942E-04  0.1128281E-10  0.1023823E-04  0.1128394E-04
  0.0000000E+00  0.0000000E+00  0.1264000E+02 -0.8055220E-04  0.1125666E-10  0.9632020E-05  0.1107809E-04
  0.0000000E+00  0.0000000E+00  0.1280000E+02 -0.8214339E-04  0.1123248E-10  0.9030412E-05  0.1088688E-04
  0.0000000E+00  0.0000000E+00  0.1296000E+02 -0.8366835E-04  0.1121017E-10  0.8436753E-05  0.1070972E-04
  0.0000000E+00  0.0000000E+00  0.1312000E+02 -0.8512308E-04  0.1118963E-10  0.7854215E-05  0.1054602E-04
  0.0000000E+00  0.0000000E+00  0.1328000E+02 -0.8650431E-04  0.1117077E-10  0.7285749E-05  0.1039515E-04
  0.0000000E+00  0.0000000E+00  0.1344000E+02 -0.8780952E-04  0.1115349E-10  0.6734044E-05  0.1025650E-04
  0.0000000E+00  0.0000000E+00  0.1360000E+02 -0.8903695E-04  0.1113771E-10  0.6201494E-05  0.1012944E-04
  0.0000000E+00  0.0000000E+00  0.1376000E+02 -0.9018562E-04  0.1112332E-10  0.5690172E-05  0.1001336E-04
  0.0000000E+00  0.0000000E+00  0.1392000E+02 -0.9125532E-04  0.1111026E-10  0.5201817E-05  0.9907623E-05
  0.0000000E+00  0.0000000E+00  0.1408000E+02 -0.9224656E-04  0.1109842E-10  0.4737823E-05  0.9811616E-05
  0.0000000E+00  0.0000000E+00  0.1424000E+02 -0.9316054E-04  0.1108772E-10  0.4299238E-05  0.9724726E-05
  0.0000000E+00  0.0000000E+00  0.1440000E+02 -0.9399909E-04  0.1107809E-10  0.3886777E-05  0.9646349E-05
  0.0000000E+00  0.0000000E+00  0.1456000E+02 -0.9476461E-04  0.1106945E-10  0.3500829E-05  0.9575895E-05
  0.0000000E+00  0.0000000E+00  0.1472000E+02 -0.9545997E-04  0.1106172E-10  0.3141480E-05  0.9512783E-05
  0.0000000E+00  0.0000000E+00  0.1488000E+02 -0.9608845E-04  0.1105484E-10  0.2808537E-05  0.9456453E-05
  0.0000000E+00  0.0000000E+00  0.1504000E+02 -0.9665365E-04  0.1104872E-10  0.2501558E-05  0.9406361E-05
  0.0000000E+00  0.0000000E+00  0.1520000E+02 -0.9715938E-04  0.1104330E-10  0.2219899E-05  0.9361988E-05
  0.0000000E+00  0.0000000E+00  0.1536000E+02 -0.9760949E-04  0.1103853E-10  0.1962818E-05  0.9322845E-05
  0.0000000E+00  0.0000000E+00  0.1552000E+02 -0.9800724E-04  0.1103435E-10  0.1729869E-05  0.9288528E-05
  0.0000000E+00  0.0000000E+00  0.1568000E+02 -0.9835269E-04  0.1103075E-10  0.1522633E-05  0.9258926E-05
  0.0000000E+00  0.0000000E+00  0.1584000E+02 -0.9863022E-04  0.1102787E-10  0.1352760E-05  0.9235282E-05
  0.0000000E+00  0.0000000E+00  0.1600000E+02 -0.9874841E-04  0.1102665E-10  0.1279665E-05  0.9225249E-05
