title = "dataset surfme2"
variables = "x", "y", "z","=soh","=soh2+","=so-","=some+"
zone t = "S_i, T =  1.000E+01 hours", i =  101, j =    1, k =    1,  f=point
  0.0000000E+00  0.0000000E+00  0.0000000E+00  0.4975331E-04  0.4975331E-04  0.4975331E-09  0.4975331E-06
  0.0000000E+00  0.0000000E+00  0.1600000E+00  0.4975331E-04  0.4975331E-04  0.4975331E-09  0.4975331E-06
  0.0000000E+00  0.0000000E+00  0.3200000E+00  0.4975331E-04  0.4975331E-04  0.4975331E-09  0.4975331E-06
  0.0000000E+00  0.0000000E+00  0.4800000E+00  0.4975331E-04  0.4975331E-04  0.4975331E-09  0.4975331E-06
  0.0000000E+00  0.0000000E+00  0.6400000E+00  0.4975331E-04  0.4975331E-04  0.4975331E-09  0.4975331E-06
  0.0000000E+00  0.0000000E+00  0.8000000E+00  0.4975331E-04  0.4975331E-04  0.4975331E-09  0.4975331E-06
  0.0000000E+00  0.0000000E+00  0.9600000E+00  0.4975331E-04  0.4975331E-04  0.4975331E-09  0.4975331E-06
  0.0000000E+00  0.0000000E+00  0.1120000E+01  0.4975331E-04  0.4975331E-04  0.4975331E-09  0.4975332E-06
  0.0000000E+00  0.0000000E+00  0.1280000E+01  0.4975331E-04  0.4975331E-04  0.4975332E-09  0.4975332E-06
  0.0000000E+00  0.0000000E+00  0.1440000E+01  0.4975332E-04  0.4975330E-04  0.4975333E-09  0.4975334E-06
  0.0000000E+00  0.0000000E+00  0.1600000E+01  0.4975332E-04  0.4975330E-04  0.4975335E-09  0.4975336E-06
  0.0000000E+00  0.0000000E+00  0.1760000E+01  0.4975334E-04  0.4975328E-04  0.4975339E-09  0.4975342E-06
  0.0000000E+00  0.0000000E+00  0.1920000E+01  0.4975336E-04  0.4975326E-04  0.4975347E-09  0.4975352E-06
  0.0000000E+00  0.0000000E+00  0.2080000E+01  0.4975341E-04  0.4975321E-04  0.4975361E-09  0.4975370E-06
  0.0000000E+00  0.0000000E+00  0.2240000E+01  0.4975349E-04  0.4975312E-04  0.4975387E-09  0.4975405E-06
  0.0000000E+00  0.0000000E+00  0.2400000E+01  0.4975365E-04  0.4975296E-04  0.4975434E-09  0.4975467E-06
  0.0000000E+00  0.0000000E+00  0.2560000E+01  0.4975392E-04  0.4975267E-04  0.4975518E-09  0.4975581E-06
  0.0000000E+00  0.0000000E+00  0.2720000E+01  0.4975441E-04  0.4975216E-04  0.4975666E-09  0.4975783E-06
  0.0000000E+00  0.0000000E+00  0.2880000E+01  0.4975526E-04  0.4975127E-04  0.4975925E-09  0.4976141E-06
  0.0000000E+00  0.0000000E+00  0.3040000E+01  0.4975674E-04  0.4974974E-04  0.4976374E-09  0.4976768E-06
  0.0000000E+00  0.0000000E+00  0.3200000E+01  0.4975926E-04  0.4974711E-04  0.4977141E-09  0.4977861E-06
  0.0000000E+00  0.0000000E+00  0.3360000E+01  0.4976353E-04  0.4974264E-04  0.4978443E-09  0.4979752E-06
  0.0000000E+00  0.0000000E+00  0.3520000E+01  0.4977072E-04  0.4973513E-04  0.4980634E-09  0.4983007E-06
  0.0000000E+00  0.0000000E+00  0.3680000E+01  0.4978271E-04  0.4972258E-04  0.4984292E-09  0.4988583E-06
  0.0000000E+00  0.0000000E+00  0.3840000E+01  0.4980257E-04  0.4970177E-04  0.4990356E-09  0.4998106E-06
  0.0000000E+00  0.0000000E+00  0.4000000E+01  0.4983521E-04  0.4966751E-04  0.5000348E-09  0.5014337E-06
  0.0000000E+00  0.0000000E+00  0.4160000E+01  0.4988854E-04  0.4961141E-04  0.5016723E-09  0.5041987E-06
  0.0000000E+00  0.0000000E+00  0.4320000E+01  0.4997518E-04  0.4952005E-04  0.5043450E-09  0.5089149E-06
  0.0000000E+00  0.0000000E+00  0.4480000E+01  0.5011521E-04  0.4937194E-04  0.5086967E-09  0.5169882E-06
  0.0000000E+00  0.0000000E+00  0.4640000E+01  0.5034054E-04  0.4913269E-04  0.5157808E-09  0.5308999E-06
  0.0000000E+00  0.0000000E+00  0.4800000E+01  0.5070188E-04  0.4874710E-04  0.5273505E-09  0.5551381E-06
  0.0000000E+00  0.0000000E+00  0.4960000E+01  0.5127991E-04  0.4812608E-04  0.5464042E-09  0.5981107E-06
  0.0000000E+00  0.0000000E+00  0.5120000E+01  0.5220328E-04  0.4712440E-04  0.5782955E-09  0.6763858E-06
  0.0000000E+00  0.0000000E+00  0.5280000E+01  0.5367709E-04  0.4550190E-04  0.6332110E-09  0.8250255E-06
  0.0000000E+00  0.0000000E+00  0.5440000E+01  0.5602310E-04  0.4285494E-04  0.7323749E-09  0.1125872E-05
  0.0000000E+00  0.0000000E+00  0.5600000E+01  0.5970490E-04  0.3850232E-04  0.9258340E-09  0.1796509E-05
  0.0000000E+00  0.0000000E+00  0.5760000E+01  0.6511737E-04  0.3137060E-04  0.1351670E-08  0.3515325E-05
  0.0000000E+00  0.0000000E+00  0.5920000E+01  0.7082825E-04  0.2048906E-04  0.2448449E-08  0.8684892E-05
  0.0000000E+00  0.0000000E+00  0.6080000E+01  0.6809995E-04  0.8814627E-05  0.5261258E-08  0.2308481E-04
  0.0000000E+00  0.0000000E+00  0.6240000E+01  0.5523017E-04  0.3194778E-05  0.9547992E-08  0.4157016E-04
  0.0000000E+00  0.0000000E+00  0.6400000E+01  0.4888337E-04  0.1659762E-05  0.1439715E-07  0.4944712E-04
  0.0000000E+00  0.0000000E+00  0.6560000E+01  0.4926852E-04  0.8202363E-06  0.2959375E-07  0.4988630E-04
  0.0000000E+00  0.0000000E+00  0.6720000E+01  0.5522118E-04  0.1159439E-08  0.2630046E-04  0.1848185E-04
  0.0000000E+00  0.0000000E+00  0.6880000E+01  0.4660170E-04  0.4074788E-09  0.5329647E-04  0.1060770E-06
  0.0000000E+00  0.0000000E+00  0.7040000E+01  0.3927339E-04  0.2543911E-09  0.6063101E-04  0.9999663E-07
  0.0000000E+00  0.0000000E+00  0.7200000E+01  0.3519696E-04  0.1914501E-09  0.6470751E-04  0.9999293E-07
  0.0000000E+00  0.0000000E+00  0.7360000E+01  0.3244107E-04  0.1559991E-09  0.6746343E-04  0.9999179E-07
  0.0000000E+00  0.0000000E+00  0.7520000E+01  0.3036561E-04  0.1325977E-09  0.6953892E-04  0.9999115E-07
  0.0000000E+00  0.0000000E+00  0.7680000E+01  0.2869332E-04  0.1156148E-09  0.7121122E-04  0.9999074E-07
  0.0000000E+00  0.0000000E+00  0.7840000E+01  0.2728343E-04  0.1025026E-09  0.7262113E-04  0.9999044E-07
  0.0000000E+00  0.0000000E+00  0.8000000E+01  0.2605634E-04  0.9193622E-10  0.7384823E-04  0.9999022E-07
  0.0000000E+00  0.0000000E+00  0.8160000E+01  0.2496347E-04  0.8315526E-10  0.7494111E-04  0.9999004E-07
  0.0000000E+00  0.0000000E+00  0.8320000E+01  0.2397337E-04  0.7568987E-10  0.7593122E-04  0.9998990E-07
  0.0000000E+00  0.0000000E+00  0.8480000E+01  0.2306474E-04  0.6923260E-10  0.7683985E-04  0.9998979E-07
  0.0000000E+00  0.0000000E+00  0.8640000E+01  0.2222264E-04  0.6357275E-10  0.7768196E-04  0.9998969E-07
  0.0000000E+00  0.0000000E+00  0.8800000E+01  0.2143626E-04  0.5856035E-10  0.7846834E-04  0.9998961E-07
  0.0000000E+00  0.0000000E+00  0.8960000E+01  0.2069764E-04  0.5408517E-10  0.7920697E-04  0.9998954E-07
  0.0000000E+00  0.0000000E+00  0.9120000E+01  0.2000075E-04  0.5006391E-10  0.7990386E-04  0.9998947E-07
  0.0000000E+00  0.0000000E+00  0.9280000E+01  0.1934099E-04  0.4643213E-10  0.8056362E-04  0.9998942E-07
  0.0000000E+00  0.0000000E+00  0.9440000E+01  0.1871481E-04  0.4313891E-10  0.8118981E-04  0.9998937E-07
  0.0000000E+00  0.0000000E+00  0.9600000E+01  0.1811938E-04  0.4014319E-10  0.8178524E-04  0.9998933E-07
  0.0000000E+00  0.0000000E+00  0.9760000E+01  0.1755251E-04  0.3741137E-10  0.8235212E-04  0.9998929E-07
  0.0000000E+00  0.0000000E+00  0.9920000E+01  0.1701240E-04  0.3491544E-10  0.8289222E-04  0.9998926E-07
  0.0000000E+00  0.0000000E+00  0.1008000E+02  0.1649763E-04  0.3263178E-10  0.8340699E-04  0.9998923E-07
  0.0000000E+00  0.0000000E+00  0.1024000E+02  0.1600702E-04  0.3054016E-10  0.8389761E-04  0.9998920E-07
  0.0000000E+00  0.0000000E+00  0.1040000E+02  0.1553958E-04  0.2862307E-10  0.8436505E-04  0.9998918E-07
  0.0000000E+00  0.0000000E+00  0.1056000E+02  0.1509450E-04  0.2686519E-10  0.8481013E-04  0.9998916E-07
  0.0000000E+00  0.0000000E+00  0.1072000E+02  0.1467106E-04  0.2525296E-10  0.8523357E-04  0.9998914E-07
  0.0000000E+00  0.0000000E+00  0.1088000E+02  0.1426863E-04  0.2377431E-10  0.8563601E-04  0.9998912E-07
  0.0000000E+00  0.0000000E+00  0.1104000E+02  0.1388663E-04  0.2241839E-10  0.8601801E-04  0.9998911E-07
  0.0000000E+00  0.0000000E+00  0.1120000E+02  0.1352454E-04  0.2117539E-10  0.8638010E-04  0.9998909E-07
  0.0000000E+00  0.0000000E+00  0.1136000E+02  0.1318185E-04  0.2003638E-10  0.8672279E-04  0.9998908E-07
  0.0000000E+00  0.0000000E+00  0.1152000E+02  0.1285805E-04  0.1899322E-10  0.8704659E-04  0.9998907E-07
  0.0000000E+00  0.0000000E+00  0.1168000E+02  0.1255266E-04  0.1803844E-10  0.8735198E-04  0.9998906E-07
  0.0000000E+00  0.0000000E+00  0.1184000E+02  0.1226518E-04  0.1716517E-10  0.8763946E-04  0.9998905E-07
  0.0000000E+00  0.0000000E+00  0.1200000E+02  0.1199509E-04  0.1636708E-10  0.8790955E-04  0.9998905E-07
  0.0000000E+00  0.0000000E+00  0.1216000E+02  0.1174188E-04  0.1563833E-10  0.8816276E-04  0.9998904E-07
  0.0000000E+00  0.0000000E+00  0.1232000E+02  0.1150502E-04  0.1497352E-10  0.8839963E-04  0.9998903E-07
  0.0000000E+00  0.0000000E+00  0.1248000E+02  0.1128394E-04  0.1436767E-10  0.8862071E-04  0.9998903E-07
  0.0000000E+00  0.0000000E+00  0.1264000E+02  0.1107809E-04  0.1381614E-10  0.8882656E-04  0.9998902E-07
  0.0000000E+00  0.0000000E+00  0.1280000E+02  0.1088688E-04  0.1331466E-10  0.8901777E-04  0.9998902E-07
  0.0000000E+00  0.0000000E+00  0.1296000E+02  0.1070972E-04  0.1285928E-10  0.8919492E-04  0.9998902E-07
  0.0000000E+00  0.0000000E+00  0.1312000E+02  0.1054602E-04  0.1244631E-10  0.8935863E-04  0.9998901E-07
  0.0000000E+00  0.0000000E+00  0.1328000E+02  0.1039515E-04  0.1207237E-10  0.8950950E-04  0.9998901E-07
  0.0000000E+00  0.0000000E+00  0.1344000E+02  0.1025650E-04  0.1173429E-10  0.8964815E-04  0.9998901E-07
  0.0000000E+00  0.0000000E+00  0.1360000E+02  0.1012944E-04  0.1142917E-10  0.8977521E-04  0.9998901E-07
  0.0000000E+00  0.0000000E+00  0.1376000E+02  0.1001336E-04  0.1115429E-10  0.8989129E-04  0.9998900E-07
  0.0000000E+00  0.0000000E+00  0.1392000E+02  0.9907623E-05  0.1090714E-10  0.8999703E-04  0.9998900E-07
  0.0000000E+00  0.0000000E+00  0.1408000E+02  0.9811616E-05  0.1068538E-10  0.9009303E-04  0.9998900E-07
  0.0000000E+00  0.0000000E+00  0.1424000E+02  0.9724726E-05  0.1048685E-10  0.9017992E-04  0.9998900E-07
  0.0000000E+00  0.0000000E+00  0.1440000E+02  0.9646349E-05  0.1030953E-10  0.9025830E-04  0.9998900E-07
  0.0000000E+00  0.0000000E+00  0.1456000E+02  0.9575895E-05  0.1015156E-10  0.9032876E-04  0.9998900E-07
  0.0000000E+00  0.0000000E+00  0.1472000E+02  0.9512783E-05  0.1001119E-10  0.9039187E-04  0.9998900E-07
  0.0000000E+00  0.0000000E+00  0.1488000E+02  0.9456453E-05  0.9886820E-11  0.9044820E-04  0.9998900E-07
  0.0000000E+00  0.0000000E+00  0.1504000E+02  0.9406361E-05  0.9776940E-11  0.9049829E-04  0.9998899E-07
  0.0000000E+00  0.0000000E+00  0.1520000E+02  0.9361988E-05  0.9680168E-11  0.9054266E-04  0.9998899E-07
  0.0000000E+00  0.0000000E+00  0.1536000E+02  0.9322845E-05  0.9595243E-11  0.9058181E-04  0.9998899E-07
  0.0000000E+00  0.0000000E+00  0.1552000E+02  0.9288528E-05  0.9521125E-11  0.9061612E-04  0.9998899E-07
  0.0000000E+00  0.0000000E+00  0.1568000E+02  0.9258926E-05  0.9457447E-11  0.9064573E-04  0.9998899E-07
  0.0000000E+00  0.0000000E+00  0.1584000E+02  0.9235282E-05  0.9406753E-11  0.9066937E-04  0.9998899E-07
  0.0000000E+00  0.0000000E+00  0.1600000E+02  0.9225249E-05  0.9385286E-11  0.9067940E-04  0.9998899E-07
