title = "dataset surfme2"
variables = "x","y","z","pH","ionic strength", "C-Alk [eq/L]","NC-Alk [eq/L]","Alk [eq/L]","C-Alk [mg/L CaCO_3]","NC-Alk [mg/L CACO_3]","Alk [mg/L CaCO_3]","temperature"
zone t = "Master variables, T =  1.000E+01 hours", i =  101, j =    1, k =    1,  f=point
  0.0000000E+00  0.0000000E+00  0.0000000E+00  0.4000000E+01  0.8000005E-04  0.0000000E+00  0.0000000E+00  0.0000000E+00  0.0000000E+00  0.0000000E+00  0.0000000E+00  0.2500000E+02
  0.0000000E+00  0.0000000E+00  0.1600000E+00  0.4000000E+01  0.8000005E-04  0.0000000E+00  0.0000000E+00  0.0000000E+00  0.0000000E+00  0.0000000E+00  0.0000000E+00  0.2500000E+02
  0.0000000E+00  0.0000000E+00  0.3200000E+00  0.4000000E+01  0.8000005E-04  0.0000000E+00  0.0000000E+00  0.0000000E+00  0.0000000E+00  0.0000000E+00  0.0000000E+00  0.2500000E+02
  0.0000000E+00  0.0000000E+00  0.4800000E+00  0.4000000E+01  0.8000005E-04  0.0000000E+00  0.0000000E+00  0.0000000E+00  0.0000000E+00  0.0000000E+00  0.0000000E+00  0.2500000E+02
  0.0000000E+00  0.0000000E+00  0.6400000E+00  0.4000000E+01  0.8000005E-04  0.0000000E+00  0.0000000E+00  0.0000000E+00  0.0000000E+00  0.0000000E+00  0.0000000E+00  0.2500000E+02
  0.0000000E+00  0.0000000E+00  0.8000000E+00  0.4000000E+01  0.8000005E-04  0.0000000E+00  0.0000000E+00  0.0000000E+00  0.0000000E+00  0.0000000E+00  0.0000000E+00  0.2500000E+02
  0.0000000E+00  0.0000000E+00  0.9600000E+00  0.4000000E+01  0.8000005E-04  0.0000000E+00  0.0000000E+00  0.0000000E+00  0.0000000E+00  0.0000000E+00  0.0000000E+00  0.2500000E+02
  0.0000000E+00  0.0000000E+00  0.1120000E+01  0.4000000E+01  0.8000005E-04  0.0000000E+00  0.0000000E+00  0.0000000E+00  0.0000000E+00  0.0000000E+00  0.0000000E+00  0.2500000E+02
  0.0000000E+00  0.0000000E+00  0.1280000E+01  0.4000000E+01  0.8000004E-04  0.0000000E+00  0.0000000E+00  0.0000000E+00  0.0000000E+00  0.0000000E+00  0.0000000E+00  0.2500000E+02
  0.0000000E+00  0.0000000E+00  0.1440000E+01  0.4000000E+01  0.8000004E-04  0.0000000E+00  0.0000000E+00  0.0000000E+00  0.0000000E+00  0.0000000E+00  0.0000000E+00  0.2500000E+02
  0.0000000E+00  0.0000000E+00  0.1600000E+01  0.4000000E+01  0.8000003E-04  0.0000000E+00  0.0000000E+00  0.0000000E+00  0.0000000E+00  0.0000000E+00  0.0000000E+00  0.2500000E+02
  0.0000000E+00  0.0000000E+00  0.1760000E+01  0.4000000E+01  0.8000000E-04  0.0000000E+00  0.0000000E+00  0.0000000E+00  0.0000000E+00  0.0000000E+00  0.0000000E+00  0.2500000E+02
  0.0000000E+00  0.0000000E+00  0.1920000E+01  0.4000001E+01  0.7999996E-04  0.0000000E+00  0.0000000E+00  0.0000000E+00  0.0000000E+00  0.0000000E+00  0.0000000E+00  0.2500000E+02
  0.0000000E+00  0.0000000E+00  0.2080000E+01  0.4000002E+01  0.7999988E-04  0.0000000E+00  0.0000000E+00  0.0000000E+00  0.0000000E+00  0.0000000E+00  0.0000000E+00  0.2500000E+02
  0.0000000E+00  0.0000000E+00  0.2240000E+01  0.4000003E+01  0.7999974E-04  0.0000000E+00  0.0000000E+00  0.0000000E+00  0.0000000E+00  0.0000000E+00  0.0000000E+00  0.2500000E+02
  0.0000000E+00  0.0000000E+00  0.2400000E+01  0.4000006E+01  0.7999949E-04  0.0000000E+00  0.0000000E+00  0.0000000E+00  0.0000000E+00  0.0000000E+00  0.0000000E+00  0.2500000E+02
  0.0000000E+00  0.0000000E+00  0.2560000E+01  0.4000011E+01  0.7999904E-04  0.0000000E+00  0.0000000E+00  0.0000000E+00  0.0000000E+00  0.0000000E+00  0.0000000E+00  0.2500000E+02
  0.0000000E+00  0.0000000E+00  0.2720000E+01  0.4000020E+01  0.7999826E-04  0.0000000E+00  0.0000000E+00  0.0000000E+00  0.0000000E+00  0.0000000E+00  0.0000000E+00  0.2500000E+02
  0.0000000E+00  0.0000000E+00  0.2880000E+01  0.4000035E+01  0.7999690E-04  0.0000000E+00  0.0000000E+00  0.0000000E+00  0.0000000E+00  0.0000000E+00  0.0000000E+00  0.2500000E+02
  0.0000000E+00  0.0000000E+00  0.3040000E+01  0.4000061E+01  0.7999460E-04  0.0000000E+00  0.0000000E+00  0.0000000E+00  0.0000000E+00  0.0000000E+00  0.0000000E+00  0.2500000E+02
  0.0000000E+00  0.0000000E+00  0.3200000E+01  0.4000106E+01  0.7999073E-04  0.0000000E+00  0.0000000E+00  0.0000000E+00  0.0000000E+00  0.0000000E+00  0.0000000E+00  0.2500000E+02
  0.0000000E+00  0.0000000E+00  0.3360000E+01  0.4000182E+01  0.7998432E-04  0.0000000E+00  0.0000000E+00  0.0000000E+00  0.0000000E+00  0.0000000E+00  0.0000000E+00  0.2500000E+02
  0.0000000E+00  0.0000000E+00  0.3520000E+01  0.4000311E+01  0.7997382E-04  0.0000000E+00  0.0000000E+00  0.0000000E+00  0.0000000E+00  0.0000000E+00  0.0000000E+00  0.2500000E+02
  0.0000000E+00  0.0000000E+00  0.3680000E+01  0.4000525E+01  0.7995687E-04  0.0000000E+00  0.0000000E+00  0.0000000E+00  0.0000000E+00  0.0000000E+00  0.0000000E+00  0.2500000E+02
  0.0000000E+00  0.0000000E+00  0.3840000E+01  0.4000880E+01  0.7992990E-04  0.0000000E+00  0.0000000E+00  0.0000000E+00  0.0000000E+00  0.0000000E+00  0.0000000E+00  0.2500000E+02
  0.0000000E+00  0.0000000E+00  0.4000000E+01  0.4001464E+01  0.7988772E-04  0.0000000E+00  0.0000000E+00  0.0000000E+00  0.0000000E+00  0.0000000E+00  0.0000000E+00  0.2500000E+02
  0.0000000E+00  0.0000000E+00  0.4160000E+01  0.4002419E+01  0.7982298E-04  0.0000000E+00  0.0000000E+00  0.0000000E+00  0.0000000E+00  0.0000000E+00  0.0000000E+00  0.2500000E+02
  0.0000000E+00  0.0000000E+00  0.4320000E+01  0.4003973E+01  0.7972585E-04  0.0000000E+00  0.0000000E+00  0.0000000E+00  0.0000000E+00  0.0000000E+00  0.0000000E+00  0.2500000E+02
  0.0000000E+00  0.0000000E+00  0.4480000E+01  0.4006489E+01  0.7958439E-04  0.0000000E+00  0.0000000E+00  0.0000000E+00  0.0000000E+00  0.0000000E+00  0.0000000E+00  0.2500000E+02
  0.0000000E+00  0.0000000E+00  0.4640000E+01  0.4010547E+01  0.7938650E-04  0.0000000E+00  0.0000000E+00  0.0000000E+00  0.0000000E+00  0.0000000E+00  0.0000000E+00  0.2500000E+02
  0.0000000E+00  0.0000000E+00  0.4800000E+01  0.4017075E+01  0.7912598E-04  0.0000000E+00  0.0000000E+00  0.0000000E+00  0.0000000E+00  0.0000000E+00  0.0000000E+00  0.2500000E+02
  0.0000000E+00  0.0000000E+00  0.4960000E+01  0.4027567E+01  0.7881724E-04  0.0000000E+00  0.0000000E+00  0.0000000E+00  0.0000000E+00  0.0000000E+00  0.0000000E+00  0.2500000E+02
  0.0000000E+00  0.0000000E+00  0.5120000E+01  0.4044452E+01  0.7852747E-04  0.0000000E+00  0.0000000E+00  0.0000000E+00  0.0000000E+00  0.0000000E+00  0.0000000E+00  0.2500000E+02
  0.0000000E+00  0.0000000E+00  0.5280000E+01  0.4071759E+01  0.7844270E-04  0.0000000E+00  0.0000000E+00  0.0000000E+00  0.0000000E+00  0.0000000E+00  0.0000000E+00  0.2500000E+02
  0.0000000E+00  0.0000000E+00  0.5440000E+01  0.4116366E+01  0.7899245E-04  0.0000000E+00  0.0000000E+00  0.0000000E+00  0.0000000E+00  0.0000000E+00  0.0000000E+00  0.2500000E+02
  0.0000000E+00  0.0000000E+00  0.5600000E+01  0.4190523E+01  0.8105099E-04  0.0000000E+00  0.0000000E+00  0.0000000E+00  0.0000000E+00  0.0000000E+00  0.0000000E+00  0.2500000E+02
  0.0000000E+00  0.0000000E+00  0.5760000E+01  0.4317174E+01  0.8610040E-04  0.0000000E+00  0.0000000E+00  0.0000000E+00  0.0000000E+00  0.0000000E+00  0.0000000E+00  0.2500000E+02
  0.0000000E+00  0.0000000E+00  0.5920000E+01  0.4538685E+01  0.9540327E-04  0.0000000E+00  0.0000000E+00  0.0000000E+00  0.0000000E+00  0.0000000E+00  0.0000000E+00  0.2500000E+02
  0.0000000E+00  0.0000000E+00  0.6080000E+01  0.4887943E+01  0.1042223E-03  0.0000000E+00  0.0000000E+00  0.0000000E+00  0.0000000E+00  0.0000000E+00  0.0000000E+00  0.2500000E+02
  0.0000000E+00  0.0000000E+00  0.6240000E+01  0.5237736E+01  0.9996393E-04  0.0000000E+00  0.0000000E+00  0.0000000E+00  0.0000000E+00  0.0000000E+00  0.0000000E+00  0.2500000E+02
  0.0000000E+00  0.0000000E+00  0.6400000E+01  0.5469115E+01  0.8038192E-04  0.0000000E+00  0.0000000E+00  0.0000000E+00  0.0000000E+00  0.0000000E+00  0.0000000E+00  0.2500000E+02
  0.0000000E+00  0.0000000E+00  0.6560000E+01  0.5778631E+01  0.4453944E-04  0.0000000E+00  0.0000000E+00  0.0000000E+00  0.0000000E+00  0.0000000E+00  0.0000000E+00  0.2500000E+02
  0.0000000E+00  0.0000000E+00  0.6720000E+01  0.8677858E+01  0.1239390E-04  0.0000000E+00  0.0000000E+00  0.0000000E+00  0.0000000E+00  0.0000000E+00  0.0000000E+00  0.2500000E+02
  0.0000000E+00  0.0000000E+00  0.6880000E+01  0.9058297E+01  0.1572706E-04  0.0000000E+00  0.0000000E+00  0.0000000E+00  0.0000000E+00  0.0000000E+00  0.0000000E+00  0.2500000E+02
  0.0000000E+00  0.0000000E+00  0.7040000E+01  0.9188596E+01  0.1773111E-04  0.0000000E+00  0.0000000E+00  0.0000000E+00  0.0000000E+00  0.0000000E+00  0.0000000E+00  0.2500000E+02
  0.0000000E+00  0.0000000E+00  0.7200000E+01  0.9264450E+01  0.1920347E-04  0.0000000E+00  0.0000000E+00  0.0000000E+00  0.0000000E+00  0.0000000E+00  0.0000000E+00  0.2500000E+02
  0.0000000E+00  0.0000000E+00  0.7360000E+01  0.9317973E+01  0.2040516E-04  0.0000000E+00  0.0000000E+00  0.0000000E+00  0.0000000E+00  0.0000000E+00  0.0000000E+00  0.2500000E+02
  0.0000000E+00  0.0000000E+00  0.7520000E+01  0.9359846E+01  0.2145053E-04  0.0000000E+00  0.0000000E+00  0.0000000E+00  0.0000000E+00  0.0000000E+00  0.0000000E+00  0.2500000E+02
  0.0000000E+00  0.0000000E+00  0.7680000E+01  0.9394768E+01  0.2239887E-04  0.0000000E+00  0.0000000E+00  0.0000000E+00  0.0000000E+00  0.0000000E+00  0.0000000E+00  0.2500000E+02
  0.0000000E+00  0.0000000E+00  0.7840000E+01  0.9425164E+01  0.2328438E-04  0.0000000E+00  0.0000000E+00  0.0000000E+00  0.0000000E+00  0.0000000E+00  0.0000000E+00  0.2500000E+02
  0.0000000E+00  0.0000000E+00  0.8000000E+01  0.9452427E+01  0.2412823E-04  0.0000000E+00  0.0000000E+00  0.0000000E+00  0.0000000E+00  0.0000000E+00  0.0000000E+00  0.2500000E+02
  0.0000000E+00  0.0000000E+00  0.8160000E+01  0.9477415E+01  0.2494428E-04  0.0000000E+00  0.0000000E+00  0.0000000E+00  0.0000000E+00  0.0000000E+00  0.0000000E+00  0.2500000E+02
  0.0000000E+00  0.0000000E+00  0.8320000E+01  0.9500691E+01  0.2574191E-04  0.0000000E+00  0.0000000E+00  0.0000000E+00  0.0000000E+00  0.0000000E+00  0.0000000E+00  0.2500000E+02
  0.0000000E+00  0.0000000E+00  0.8480000E+01  0.9522638E+01  0.2652765E-04  0.0000000E+00  0.0000000E+00  0.0000000E+00  0.0000000E+00  0.0000000E+00  0.0000000E+00  0.2500000E+02
  0.0000000E+00  0.0000000E+00  0.8640000E+01  0.9543525E+01  0.2730608E-04  0.0000000E+00  0.0000000E+00  0.0000000E+00  0.0000000E+00  0.0000000E+00  0.0000000E+00  0.2500000E+02
  0.0000000E+00  0.0000000E+00  0.8800000E+01  0.9563545E+01  0.2808041E-04  0.0000000E+00  0.0000000E+00  0.0000000E+00  0.0000000E+00  0.0000000E+00  0.0000000E+00  0.2500000E+02
  0.0000000E+00  0.0000000E+00  0.8960000E+01  0.9582843E+01  0.2885285E-04  0.0000000E+00  0.0000000E+00  0.0000000E+00  0.0000000E+00  0.0000000E+00  0.0000000E+00  0.2500000E+02
  0.0000000E+00  0.0000000E+00  0.9120000E+01  0.9601522E+01  0.2962483E-04  0.0000000E+00  0.0000000E+00  0.0000000E+00  0.0000000E+00  0.0000000E+00  0.0000000E+00  0.2500000E+02
  0.0000000E+00  0.0000000E+00  0.9280000E+01  0.9619660E+01  0.3039715E-04  0.0000000E+00  0.0000000E+00  0.0000000E+00  0.0000000E+00  0.0000000E+00  0.0000000E+00  0.2500000E+02
  0.0000000E+00  0.0000000E+00  0.9440000E+01  0.9637316E+01  0.3117016E-04  0.0000000E+00  0.0000000E+00  0.0000000E+00  0.0000000E+00  0.0000000E+00  0.0000000E+00  0.2500000E+02
  0.0000000E+00  0.0000000E+00  0.9600000E+01  0.9654532E+01  0.3194377E-04  0.0000000E+00  0.0000000E+00  0.0000000E+00  0.0000000E+00  0.0000000E+00  0.0000000E+00  0.2500000E+02
  0.0000000E+00  0.0000000E+00  0.9760000E+01  0.9671336E+01  0.3271755E-04  0.0000000E+00  0.0000000E+00  0.0000000E+00  0.0000000E+00  0.0000000E+00  0.0000000E+00  0.2500000E+02
  0.0000000E+00  0.0000000E+00  0.9920000E+01  0.9687748E+01  0.3349079E-04  0.0000000E+00  0.0000000E+00  0.0000000E+00  0.0000000E+00  0.0000000E+00  0.0000000E+00  0.2500000E+02
  0.0000000E+00  0.0000000E+00  0.1008000E+02  0.9703781E+01  0.3426252E-04  0.0000000E+00  0.0000000E+00  0.0000000E+00  0.0000000E+00  0.0000000E+00  0.0000000E+00  0.2500000E+02
  0.0000000E+00  0.0000000E+00  0.1024000E+02  0.9719439E+01  0.3503154E-04  0.0000000E+00  0.0000000E+00  0.0000000E+00  0.0000000E+00  0.0000000E+00  0.0000000E+00  0.2500000E+02
  0.0000000E+00  0.0000000E+00  0.1040000E+02  0.9734723E+01  0.3579647E-04  0.0000000E+00  0.0000000E+00  0.0000000E+00  0.0000000E+00  0.0000000E+00  0.0000000E+00  0.2500000E+02
  0.0000000E+00  0.0000000E+00  0.1056000E+02  0.9749629E+01  0.3655577E-04  0.0000000E+00  0.0000000E+00  0.0000000E+00  0.0000000E+00  0.0000000E+00  0.0000000E+00  0.2500000E+02
  0.0000000E+00  0.0000000E+00  0.1072000E+02  0.9764149E+01  0.3730778E-04  0.0000000E+00  0.0000000E+00  0.0000000E+00  0.0000000E+00  0.0000000E+00  0.0000000E+00  0.2500000E+02
  0.0000000E+00  0.0000000E+00  0.1088000E+02  0.9778274E+01  0.3805070E-04  0.0000000E+00  0.0000000E+00  0.0000000E+00  0.0000000E+00  0.0000000E+00  0.0000000E+00  0.2500000E+02
  0.0000000E+00  0.0000000E+00  0.1104000E+02  0.9791992E+01  0.3878269E-04  0.0000000E+00  0.0000000E+00  0.0000000E+00  0.0000000E+00  0.0000000E+00  0.0000000E+00  0.2500000E+02
  0.0000000E+00  0.0000000E+00  0.1120000E+02  0.9805291E+01  0.3950183E-04  0.0000000E+00  0.0000000E+00  0.0000000E+00  0.0000000E+00  0.0000000E+00  0.0000000E+00  0.2500000E+02
  0.0000000E+00  0.0000000E+00  0.1136000E+02  0.9818157E+01  0.4020619E-04  0.0000000E+00  0.0000000E+00  0.0000000E+00  0.0000000E+00  0.0000000E+00  0.0000000E+00  0.2500000E+02
  0.0000000E+00  0.0000000E+00  0.1152000E+02  0.9830577E+01  0.4089384E-04  0.0000000E+00  0.0000000E+00  0.0000000E+00  0.0000000E+00  0.0000000E+00  0.0000000E+00  0.2500000E+02
  0.0000000E+00  0.0000000E+00  0.1168000E+02  0.9842537E+01  0.4156288E-04  0.0000000E+00  0.0000000E+00  0.0000000E+00  0.0000000E+00  0.0000000E+00  0.0000000E+00  0.2500000E+02
  0.0000000E+00  0.0000000E+00  0.1184000E+02  0.9854026E+01  0.4221150E-04  0.0000000E+00  0.0000000E+00  0.0000000E+00  0.0000000E+00  0.0000000E+00  0.0000000E+00  0.2500000E+02
  0.0000000E+00  0.0000000E+00  0.1200000E+02  0.9865032E+01  0.4283795E-04  0.0000000E+00  0.0000000E+00  0.0000000E+00  0.0000000E+00  0.0000000E+00  0.0000000E+00  0.2500000E+02
  0.0000000E+00  0.0000000E+00  0.1216000E+02  0.9875547E+01  0.4344063E-04  0.0000000E+00  0.0000000E+00  0.0000000E+00  0.0000000E+00  0.0000000E+00  0.0000000E+00  0.2500000E+02
  0.0000000E+00  0.0000000E+00  0.1232000E+02  0.9885563E+01  0.4401807E-04  0.0000000E+00  0.0000000E+00  0.0000000E+00  0.0000000E+00  0.0000000E+00  0.0000000E+00  0.2500000E+02
  0.0000000E+00  0.0000000E+00  0.1248000E+02  0.9895074E+01  0.4456897E-04  0.0000000E+00  0.0000000E+00  0.0000000E+00  0.0000000E+00  0.0000000E+00  0.0000000E+00  0.2500000E+02
  0.0000000E+00  0.0000000E+00  0.1264000E+02  0.9904078E+01  0.4509226E-04  0.0000000E+00  0.0000000E+00  0.0000000E+00  0.0000000E+00  0.0000000E+00  0.0000000E+00  0.2500000E+02
  0.0000000E+00  0.0000000E+00  0.1280000E+02  0.9912573E+01  0.4558705E-04  0.0000000E+00  0.0000000E+00  0.0000000E+00  0.0000000E+00  0.0000000E+00  0.0000000E+00  0.2500000E+02
  0.0000000E+00  0.0000000E+00  0.1296000E+02  0.9920562E+01  0.4605269E-04  0.0000000E+00  0.0000000E+00  0.0000000E+00  0.0000000E+00  0.0000000E+00  0.0000000E+00  0.2500000E+02
  0.0000000E+00  0.0000000E+00  0.1312000E+02  0.9928048E+01  0.4648879E-04  0.0000000E+00  0.0000000E+00  0.0000000E+00  0.0000000E+00  0.0000000E+00  0.0000000E+00  0.2500000E+02
  0.0000000E+00  0.0000000E+00  0.1328000E+02  0.9935038E+01  0.4689517E-04  0.0000000E+00  0.0000000E+00  0.0000000E+00  0.0000000E+00  0.0000000E+00  0.0000000E+00  0.2500000E+02
  0.0000000E+00  0.0000000E+00  0.1344000E+02  0.9941542E+01  0.4727192E-04  0.0000000E+00  0.0000000E+00  0.0000000E+00  0.0000000E+00  0.0000000E+00  0.0000000E+00  0.2500000E+02
  0.0000000E+00  0.0000000E+00  0.1360000E+02  0.9947571E+01  0.4761936E-04  0.0000000E+00  0.0000000E+00  0.0000000E+00  0.0000000E+00  0.0000000E+00  0.0000000E+00  0.2500000E+02
  0.0000000E+00  0.0000000E+00  0.1376000E+02  0.9953138E+01  0.4793803E-04  0.0000000E+00  0.0000000E+00  0.0000000E+00  0.0000000E+00  0.0000000E+00  0.0000000E+00  0.2500000E+02
  0.0000000E+00  0.0000000E+00  0.1392000E+02  0.9958259E+01  0.4822870E-04  0.0000000E+00  0.0000000E+00  0.0000000E+00  0.0000000E+00  0.0000000E+00  0.0000000E+00  0.2500000E+02
  0.0000000E+00  0.0000000E+00  0.1408000E+02  0.9962951E+01  0.4849232E-04  0.0000000E+00  0.0000000E+00  0.0000000E+00  0.0000000E+00  0.0000000E+00  0.0000000E+00  0.2500000E+02
  0.0000000E+00  0.0000000E+00  0.1424000E+02  0.9967232E+01  0.4873002E-04  0.0000000E+00  0.0000000E+00  0.0000000E+00  0.0000000E+00  0.0000000E+00  0.0000000E+00  0.2500000E+02
  0.0000000E+00  0.0000000E+00  0.1440000E+02  0.9971124E+01  0.4894306E-04  0.0000000E+00  0.0000000E+00  0.0000000E+00  0.0000000E+00  0.0000000E+00  0.0000000E+00  0.2500000E+02
  0.0000000E+00  0.0000000E+00  0.1456000E+02  0.9974647E+01  0.4913285E-04  0.0000000E+00  0.0000000E+00  0.0000000E+00  0.0000000E+00  0.0000000E+00  0.0000000E+00  0.2500000E+02
  0.0000000E+00  0.0000000E+00  0.1472000E+02  0.9977822E+01  0.4930085E-04  0.0000000E+00  0.0000000E+00  0.0000000E+00  0.0000000E+00  0.0000000E+00  0.0000000E+00  0.2500000E+02
  0.0000000E+00  0.0000000E+00  0.1488000E+02  0.9980672E+01  0.4944862E-04  0.0000000E+00  0.0000000E+00  0.0000000E+00  0.0000000E+00  0.0000000E+00  0.0000000E+00  0.2500000E+02
  0.0000000E+00  0.0000000E+00  0.1504000E+02  0.9983219E+01  0.4957773E-04  0.0000000E+00  0.0000000E+00  0.0000000E+00  0.0000000E+00  0.0000000E+00  0.0000000E+00  0.2500000E+02
  0.0000000E+00  0.0000000E+00  0.1520000E+02  0.9985485E+01  0.4968976E-04  0.0000000E+00  0.0000000E+00  0.0000000E+00  0.0000000E+00  0.0000000E+00  0.0000000E+00  0.2500000E+02
  0.0000000E+00  0.0000000E+00  0.1536000E+02  0.9987492E+01  0.4978628E-04  0.0000000E+00  0.0000000E+00  0.0000000E+00  0.0000000E+00  0.0000000E+00  0.0000000E+00  0.2500000E+02
  0.0000000E+00  0.0000000E+00  0.1552000E+02  0.9989259E+01  0.4986868E-04  0.0000000E+00  0.0000000E+00  0.0000000E+00  0.0000000E+00  0.0000000E+00  0.0000000E+00  0.2500000E+02
  0.0000000E+00  0.0000000E+00  0.1568000E+02  0.9990787E+01  0.4993779E-04  0.0000000E+00  0.0000000E+00  0.0000000E+00  0.0000000E+00  0.0000000E+00  0.0000000E+00  0.2500000E+02
  0.0000000E+00  0.0000000E+00  0.1584000E+02  0.9992010E+01  0.4999161E-04  0.0000000E+00  0.0000000E+00  0.0000000E+00  0.0000000E+00  0.0000000E+00  0.0000000E+00  0.2500000E+02
  0.0000000E+00  0.0000000E+00  0.1600000E+02  0.9992531E+01  0.5001416E-04  0.0000000E+00  0.0000000E+00  0.0000000E+00  0.0000000E+00  0.0000000E+00  0.0000000E+00  0.2500000E+02
