title = "dataset surfme2"
variables = "time","=soh","=soh2+","=so-","=some+"
zone t = "S_i, volume =   101", f=point
  0.0000000E+00  0.9082241E-05  0.9082241E-11  0.9082241E-04  0.9998899E-07
  0.2400000E-06  0.9082241E-05  0.9082241E-11  0.9082241E-04  0.9998899E-07
  0.6415968E-06  0.9082241E-05  0.9082241E-11  0.9082241E-04  0.9998899E-07
  0.1313597E-05  0.9082241E-05  0.9082241E-11  0.9082241E-04  0.9998899E-07
  0.2438068E-05  0.9082241E-05  0.9082241E-11  0.9082241E-04  0.9998899E-07
  0.4319668E-05  0.9082241E-05  0.9082241E-11  0.9082241E-04  0.9998899E-07
  0.7468187E-05  0.9082241E-05  0.9082241E-11  0.9082241E-04  0.9998899E-07
  0.1273667E-04  0.9082241E-05  0.9082241E-11  0.9082241E-04  0.9998899E-07
  0.2155252E-04  0.9082241E-05  0.9082241E-11  0.9082241E-04  0.9998899E-07
  0.3630426E-04  0.9082241E-05  0.9082241E-11  0.9082241E-04  0.9998899E-07
  0.6098865E-04  0.9082241E-05  0.9082241E-11  0.9082241E-04  0.9998899E-07
  0.1022935E-03  0.9082241E-05  0.9082241E-11  0.9082241E-04  0.9998899E-07
  0.1714098E-03  0.9082241E-05  0.9082241E-11  0.9082241E-04  0.9998899E-07
  0.2870635E-03  0.9082241E-05  0.9082241E-11  0.9082241E-04  0.9998899E-07
  0.4805891E-03  0.9082241E-05  0.9082241E-11  0.9082241E-04  0.9998899E-07
  0.7762044E-03  0.9082241E-05  0.9082241E-11  0.9082241E-04  0.9998899E-07
  0.1227764E-02  0.9082241E-05  0.9082241E-11  0.9082241E-04  0.9998899E-07
  0.1917533E-02  0.9082241E-05  0.9082241E-11  0.9082241E-04  0.9998899E-07
  0.2971172E-02  0.9082241E-05  0.9082241E-11  0.9082241E-04  0.9998899E-07
  0.4580633E-02  0.9082241E-05  0.9082241E-11  0.9082241E-04  0.9998899E-07
  0.6856755E-02  0.9082241E-05  0.9082241E-11  0.9082241E-04  0.9998899E-07
  0.1007568E-01  0.9082241E-05  0.9082241E-11  0.9082241E-04  0.9998899E-07
  0.1462792E-01  0.9082241E-05  0.9082241E-11  0.9082241E-04  0.9998899E-07
  0.2106576E-01  0.9082241E-05  0.9082241E-11  0.9082241E-04  0.9998899E-07
  0.3017025E-01  0.9082241E-05  0.9082241E-11  0.9082241E-04  0.9998899E-07
  0.4221435E-01  0.9082241E-05  0.9082241E-11  0.9082241E-04  0.9998899E-07
  0.5924728E-01  0.9082241E-05  0.9082241E-11  0.9082241E-04  0.9998899E-07
  0.8177973E-01  0.9082241E-05  0.9082241E-11  0.9082241E-04  0.9998899E-07
  0.1115874E+00  0.9082241E-05  0.9082241E-11  0.9082241E-04  0.9998899E-07
  0.1212374E+00  0.9082241E-05  0.9082241E-11  0.9082241E-04  0.9998899E-07
  0.1359780E+00  0.9082241E-05  0.9082241E-11  0.9082241E-04  0.9998899E-07
  0.1584947E+00  0.9082241E-05  0.9082241E-11  0.9082241E-04  0.9998899E-07
  0.1928895E+00  0.9082241E-05  0.9082241E-11  0.9082241E-04  0.9998899E-07
  0.2415310E+00  0.9082241E-05  0.9082241E-11  0.9082241E-04  0.9998899E-07
  0.3021978E+00  0.9082241E-05  0.9082241E-11  0.9082241E-04  0.9998899E-07
  0.3760654E+00  0.9082241E-05  0.9082241E-11  0.9082241E-04  0.9998899E-07
  0.3993760E+00  0.9082241E-05  0.9082241E-11  0.9082241E-04  0.9998899E-07
  0.4383821E+00  0.9082241E-05  0.9082241E-11  0.9082241E-04  0.9998899E-07
  0.5036517E+00  0.9082241E-05  0.9082241E-11  0.9082241E-04  0.9998899E-07
  0.5959569E+00  0.9082241E-05  0.9082241E-11  0.9082241E-04  0.9998899E-07
  0.6247717E+00  0.9082241E-05  0.9082241E-11  0.9082241E-04  0.9998899E-07
  0.6687871E+00  0.9082241E-05  0.9082241E-11  0.9082241E-04  0.9998899E-07
  0.7424389E+00  0.9082241E-05  0.9082241E-11  0.9082241E-04  0.9998899E-07
  0.8549440E+00  0.9082241E-05  0.9082241E-11  0.9082241E-04  0.9998899E-07
  0.8898721E+00  0.9082241E-05  0.9082241E-11  0.9082241E-04  0.9998899E-07
  0.9483179E+00  0.9082241E-05  0.9082241E-11  0.9082241E-04  0.9998899E-07
  0.1046117E+01  0.9082241E-05  0.9082241E-11  0.9082241E-04  0.9998899E-07
  0.1087336E+01  0.9082241E-05  0.9082241E-11  0.9082241E-04  0.9998899E-07
  0.1133607E+01  0.9082241E-05  0.9082241E-11  0.9082241E-04  0.9998899E-07
  0.1204288E+01  0.9082241E-05  0.9082241E-11  0.9082241E-04  0.9998899E-07
  0.1312255E+01  0.9082241E-05  0.9082241E-11  0.9082241E-04  0.9998899E-07
  0.1350914E+01  0.9082241E-05  0.9082241E-11  0.9082241E-04  0.9998899E-07
  0.1409967E+01  0.9082241E-05  0.9082241E-11  0.9082241E-04  0.9998899E-07
  0.1500172E+01  0.9082241E-05  0.9082241E-11  0.9082241E-04  0.9998899E-07
  0.1595334E+01  0.9082241E-05  0.9082241E-11  0.9082241E-04  0.9998899E-07
  0.1632615E+01  0.9082241E-05  0.9082241E-11  0.9082241E-04  0.9998899E-07
  0.1694997E+01  0.9082241E-05  0.9082241E-11  0.9082241E-04  0.9998899E-07
  0.1799382E+01  0.9082241E-05  0.9082241E-11  0.9082241E-04  0.9998899E-07
  0.1839140E+01  0.9082241E-05  0.9082241E-11  0.9082241E-04  0.9998899E-07
  0.1899871E+01  0.9082241E-05  0.9082241E-11  0.9082241E-04  0.9998899E-07
  0.1992638E+01  0.9082241E-05  0.9082241E-11  0.9082241E-04  0.9998899E-07
  0.2068629E+01  0.9082241E-05  0.9082241E-11  0.9082241E-04  0.9998899E-07
  0.2105542E+01  0.9082241E-05  0.9082241E-11  0.9082241E-04  0.9998899E-07
  0.2167308E+01  0.9082241E-05  0.9082241E-11  0.9082241E-04  0.9998899E-07
  0.2261658E+01  0.9082241E-05  0.9082241E-11  0.9082241E-04  0.9998899E-07
  0.2301791E+01  0.9082241E-05  0.9082241E-11  0.9082241E-04  0.9998899E-07
  0.2358548E+01  0.9082241E-05  0.9082241E-11  0.9082241E-04  0.9998899E-07
  0.2445245E+01  0.9082241E-05  0.9082241E-11  0.9082241E-04  0.9998899E-07
  0.2552381E+01  0.9082241E-05  0.9082241E-11  0.9082241E-04  0.9998899E-07
  0.2594574E+01  0.9082241E-05  0.9082241E-11  0.9082241E-04  0.9998899E-07
  0.2665177E+01  0.9082241E-05  0.9082241E-11  0.9082241E-04  0.9998899E-07
  0.2773025E+01  0.9082241E-05  0.9082241E-11  0.9082241E-04  0.9998899E-07
  0.2815578E+01  0.9082241E-05  0.9082241E-11  0.9082241E-04  0.9998899E-07
  0.2880579E+01  0.9082241E-05  0.9082241E-11  0.9082241E-04  0.9998899E-07
  0.2979870E+01  0.9082241E-05  0.9082241E-11  0.9082241E-04  0.9998899E-07
  0.3023444E+01  0.9082241E-05  0.9082241E-11  0.9082241E-04  0.9998899E-07
  0.3081086E+01  0.9082241E-05  0.9082241E-11  0.9082241E-04  0.9998899E-07
  0.3169137E+01  0.9082241E-05  0.9082241E-11  0.9082241E-04  0.9998899E-07
  0.3272013E+01  0.9082241E-05  0.9082241E-11  0.9082241E-04  0.9998899E-07
  0.3314929E+01  0.9082241E-05  0.9082241E-11  0.9082241E-04  0.9998899E-07
  0.3386742E+01  0.9082241E-05  0.9082241E-11  0.9082241E-04  0.9998899E-07
  0.3496438E+01  0.9082241E-05  0.9082241E-11  0.9082241E-04  0.9998899E-07
  0.3539964E+01  0.9082241E-05  0.9082241E-11  0.9082241E-04  0.9998899E-07
  0.3606451E+01  0.9082241E-05  0.9082241E-11  0.9082241E-04  0.9998899E-07
  0.3708013E+01  0.9082241E-05  0.9082241E-11  0.9082241E-04  0.9998899E-07
  0.3750766E+01  0.9082241E-05  0.9082241E-11  0.9082241E-04  0.9998899E-07
  0.3811229E+01  0.9082241E-05  0.9082241E-11  0.9082241E-04  0.9998899E-07
  0.3903588E+01  0.9082241E-05  0.9082241E-11  0.9082241E-04  0.9998899E-07
  0.3993021E+01  0.9082241E-05  0.9082241E-11  0.9082241E-04  0.9998899E-07
  0.4034826E+01  0.9082241E-05  0.9082241E-11  0.9082241E-04  0.9998899E-07
  0.4104778E+01  0.9082241E-05  0.9082241E-11  0.9082241E-04  0.9998899E-07
  0.4211631E+01  0.9082241E-05  0.9082241E-11  0.9082241E-04  0.9998899E-07
  0.4254455E+01  0.9082241E-05  0.9082241E-11  0.9082241E-04  0.9998899E-07
  0.4319869E+01  0.9082241E-05  0.9082241E-11  0.9082241E-04  0.9998899E-07
  0.4419790E+01  0.9082241E-05  0.9082241E-11  0.9082241E-04  0.9998899E-07
  0.4463934E+01  0.9082241E-05  0.9082241E-11  0.9082241E-04  0.9998899E-07
  0.4522331E+01  0.9082241E-05  0.9082241E-11  0.9082241E-04  0.9998899E-07
  0.4611534E+01  0.9082241E-05  0.9082241E-11  0.9082241E-04  0.9998899E-07
  0.4709363E+01  0.9082241E-05  0.9082241E-11  0.9082241E-04  0.9998899E-07
  0.4751939E+01  0.9082241E-05  0.9082241E-11  0.9082241E-04  0.9998899E-07
  0.4823180E+01  0.9082241E-05  0.9082241E-11  0.9082241E-04  0.9998899E-07
  0.4932004E+01  0.9082241E-05  0.9082241E-11  0.9082241E-04  0.9998899E-07
  0.4975670E+01  0.9082241E-05  0.9082241E-11  0.9082241E-04  0.9998899E-07
  0.5000000E+01  0.9082241E-05  0.9082241E-11  0.9082241E-04  0.9998899E-07
  0.5040712E+01  0.9082241E-05  0.9082241E-11  0.9082241E-04  0.9998899E-07
  0.5108836E+01  0.9082241E-05  0.9082241E-11  0.9082241E-04  0.9998899E-07
  0.5179762E+01  0.9082241E-05  0.9082241E-11  0.9082241E-04  0.9998899E-07
  0.5217560E+01  0.9082241E-05  0.9082241E-11  0.9082241E-04  0.9998899E-07
  0.5275296E+01  0.9082241E-05  0.9082241E-11  0.9082241E-04  0.9998899E-07
  0.5363490E+01  0.9082241E-05  0.9082242E-11  0.9082241E-04  0.9998899E-07
  0.5414131E+01  0.9082241E-05  0.9082242E-11  0.9082241E-04  0.9998899E-07
  0.5458317E+01  0.9082241E-05  0.9082242E-11  0.9082241E-04  0.9998899E-07
  0.5525812E+01  0.9082242E-05  0.9082242E-11  0.9082241E-04  0.9998899E-07
  0.5628914E+01  0.9082242E-05  0.9082243E-11  0.9082241E-04  0.9998899E-07
  0.5671212E+01  0.9082242E-05  0.9082243E-11  0.9082241E-04  0.9998899E-07
  0.5735824E+01  0.9082242E-05  0.9082244E-11  0.9082241E-04  0.9998899E-07
  0.5834521E+01  0.9082243E-05  0.9082246E-11  0.9082241E-04  0.9998899E-07
  0.5899001E+01  0.9082244E-05  0.9082247E-11  0.9082241E-04  0.9998899E-07
  0.5941368E+01  0.9082245E-05  0.9082249E-11  0.9082241E-04  0.9998899E-07
  0.6006086E+01  0.9082246E-05  0.9082251E-11  0.9082241E-04  0.9998899E-07
  0.6104943E+01  0.9082248E-05  0.9082256E-11  0.9082240E-04  0.9998899E-07
  0.6146296E+01  0.9082249E-05  0.9082259E-11  0.9082240E-04  0.9998899E-07
  0.6209464E+01  0.9082252E-05  0.9082264E-11  0.9082240E-04  0.9998899E-07
  0.6305954E+01  0.9082257E-05  0.9082274E-11  0.9082239E-04  0.9998899E-07
  0.6378782E+01  0.9082262E-05  0.9082285E-11  0.9082239E-04  0.9998899E-07
  0.6420098E+01  0.9082265E-05  0.9082292E-11  0.9082239E-04  0.9998899E-07
  0.6483210E+01  0.9082272E-05  0.9082305E-11  0.9082238E-04  0.9998899E-07
  0.6579614E+01  0.9082285E-05  0.9082334E-11  0.9082237E-04  0.9998899E-07
  0.6620579E+01  0.9082292E-05  0.9082348E-11  0.9082236E-04  0.9998899E-07
  0.6678513E+01  0.9082303E-05  0.9082371E-11  0.9082235E-04  0.9998899E-07
  0.6767008E+01  0.9082326E-05  0.9082420E-11  0.9082233E-04  0.9998899E-07
  0.6857383E+01  0.9082358E-05  0.9082486E-11  0.9082229E-04  0.9998899E-07
  0.6899221E+01  0.9082374E-05  0.9082521E-11  0.9082228E-04  0.9998899E-07
  0.6969229E+01  0.9082408E-05  0.9082593E-11  0.9082224E-04  0.9998899E-07
  0.7076168E+01  0.9082482E-05  0.9082746E-11  0.9082217E-04  0.9998899E-07
  0.7119434E+01  0.9082515E-05  0.9082816E-11  0.9082214E-04  0.9998899E-07
  0.7185523E+01  0.9082577E-05  0.9082946E-11  0.9082208E-04  0.9998899E-07
  0.7286476E+01  0.9082703E-05  0.9083210E-11  0.9082195E-04  0.9998899E-07
  0.7330259E+01  0.9082764E-05  0.9083339E-11  0.9082189E-04  0.9998899E-07
  0.7392178E+01  0.9082866E-05  0.9083554E-11  0.9082179E-04  0.9998899E-07
  0.7486761E+01  0.9083068E-05  0.9083978E-11  0.9082158E-04  0.9998899E-07
  0.7570858E+01  0.9083291E-05  0.9084447E-11  0.9082136E-04  0.9998899E-07
  0.7612522E+01  0.9083414E-05  0.9084704E-11  0.9082124E-04  0.9998899E-07
  0.7682240E+01  0.9083657E-05  0.9085215E-11  0.9082099E-04  0.9998899E-07
  0.7788735E+01  0.9084143E-05  0.9086235E-11  0.9082051E-04  0.9998899E-07
  0.7831858E+01  0.9084359E-05  0.9086690E-11  0.9082029E-04  0.9998899E-07
  0.7897728E+01  0.9084745E-05  0.9087500E-11  0.9081991E-04  0.9998899E-07
  0.7998347E+01  0.9085488E-05  0.9089062E-11  0.9081916E-04  0.9998899E-07
  0.8042283E+01  0.9085845E-05  0.9089811E-11  0.9081881E-04  0.9998899E-07
  0.8104417E+01  0.9086422E-05  0.9091023E-11  0.9081823E-04  0.9998899E-07
  0.8199330E+01  0.9087503E-05  0.9093295E-11  0.9081715E-04  0.9998899E-07
  0.8283365E+01  0.9088643E-05  0.9095691E-11  0.9081601E-04  0.9998899E-07
  0.8325058E+01  0.9089257E-05  0.9096981E-11  0.9081539E-04  0.9998899E-07
  0.8394824E+01  0.9090436E-05  0.9099459E-11  0.9081422E-04  0.9998899E-07
  0.8501393E+01  0.9092659E-05  0.9104134E-11  0.9081199E-04  0.9998899E-07
  0.8544575E+01  0.9093635E-05  0.9106185E-11  0.9081102E-04  0.9998899E-07
  0.8610537E+01  0.9095316E-05  0.9109721E-11  0.9080934E-04  0.9998899E-07
  0.8711295E+01  0.9098403E-05  0.9116217E-11  0.9080625E-04  0.9998899E-07
  0.8755105E+01  0.9099851E-05  0.9119263E-11  0.9080480E-04  0.9998899E-07
  0.8817061E+01  0.9102126E-05  0.9124052E-11  0.9080253E-04  0.9998899E-07
  0.8911701E+01  0.9106206E-05  0.9132645E-11  0.9079845E-04  0.9998899E-07
  0.8995064E+01  0.9110325E-05  0.9141322E-11  0.9079433E-04  0.9998899E-07
  0.9036720E+01  0.9112521E-05  0.9145952E-11  0.9079213E-04  0.9998899E-07
  0.9106423E+01  0.9116617E-05  0.9154587E-11  0.9078803E-04  0.9998899E-07
  0.9212896E+01  0.9123984E-05  0.9170134E-11  0.9078067E-04  0.9998899E-07
  0.9256069E+01  0.9127165E-05  0.9176851E-11  0.9077749E-04  0.9998899E-07
  0.9322016E+01  0.9132506E-05  0.9188135E-11  0.9077215E-04  0.9998899E-07
  0.9422753E+01  0.9141915E-05  0.9208031E-11  0.9076274E-04  0.9998899E-07
  0.9466585E+01  0.9146259E-05  0.9217226E-11  0.9075839E-04  0.9998899E-07
  0.9528574E+01  0.9152930E-05  0.9231354E-11  0.9075172E-04  0.9998899E-07
  0.9623263E+01  0.9164462E-05  0.9255806E-11  0.9074019E-04  0.9998899E-07
  0.9706261E+01  0.9175687E-05  0.9279642E-11  0.9072896E-04  0.9998899E-07
  0.9747908E+01  0.9181614E-05  0.9292242E-11  0.9072304E-04  0.9998899E-07
  0.9817596E+01  0.9192394E-05  0.9315180E-11  0.9071226E-04  0.9998899E-07
  0.9924047E+01  0.9211045E-05  0.9354942E-11  0.9069361E-04  0.9998899E-07
  0.9967231E+01  0.9218994E-05  0.9371918E-11  0.9068566E-04  0.9998899E-07
  0.1000000E+02  0.9225249E-05  0.9385286E-11  0.9067940E-04  0.9998899E-07
  0.1005483E+02  0.9236354E-05  0.9409049E-11  0.9066830E-04  0.9998899E-07
  0.1014659E+02  0.9256841E-05  0.9452969E-11  0.9064781E-04  0.9998899E-07
  0.1018608E+02  0.9266035E-05  0.9472717E-11  0.9063862E-04  0.9998899E-07
  0.1024641E+02  0.9280959E-05  0.9504821E-11  0.9062369E-04  0.9998899E-07
  0.1033855E+02  0.9305921E-05  0.9558650E-11  0.9059873E-04  0.9998899E-07
  0.1041559E+02  0.9328393E-05  0.9607255E-11  0.9057626E-04  0.9998899E-07
  0.1045665E+02  0.9340849E-05  0.9634254E-11  0.9056380E-04  0.9998899E-07
  0.1052535E+02  0.9363024E-05  0.9682422E-11  0.9054163E-04  0.9998899E-07
  0.1063029E+02  0.9400159E-05  0.9763382E-11  0.9050449E-04  0.9998899E-07
  0.1067298E+02  0.9415857E-05  0.9797718E-11  0.9048879E-04  0.9998899E-07
  0.1073818E+02  0.9441162E-05  0.9853207E-11  0.9046349E-04  0.9998899E-07
  0.1083778E+02  0.9483023E-05  0.9945378E-11  0.9042163E-04  0.9998900E-07
  0.1088338E+02  0.9502934E-05  0.9989386E-11  0.9040172E-04  0.9998900E-07
  0.1094371E+02  0.9530510E-05  0.1005051E-10  0.9037414E-04  0.9998900E-07
  0.1103586E+02  0.9575575E-05  0.1015085E-10  0.9032908E-04  0.9998900E-07
  0.1112730E+02  0.9623331E-05  0.1025777E-10  0.9028132E-04  0.9998900E-07
  0.1116942E+02  0.9646044E-05  0.1030884E-10  0.9025861E-04  0.9998900E-07
  0.1123990E+02  0.9685870E-05  0.1039873E-10  0.9021878E-04  0.9998900E-07
  0.1134757E+02  0.9751044E-05  0.1054676E-10  0.9015361E-04  0.9998900E-07
  0.1139126E+02  0.9778339E-05  0.1060910E-10  0.9012631E-04  0.9998900E-07
  0.1145799E+02  0.9821747E-05  0.1070866E-10  0.9008290E-04  0.9998900E-07
  0.1155993E+02  0.9892092E-05  0.1087109E-10  0.9001256E-04  0.9998900E-07
  0.1160316E+02  0.9922796E-05  0.1094241E-10  0.8998185E-04  0.9998900E-07
  0.1166428E+02  0.9967709E-05  0.1104721E-10  0.8993694E-04  0.9998900E-07
  0.1175765E+02  0.1003978E-04  0.1121654E-10  0.8986486E-04  0.9998900E-07
  0.1183581E+02  0.1010275E-04  0.1136564E-10  0.8980190E-04  0.9998900E-07
  0.1187716E+02  0.1013688E-04  0.1144690E-10  0.8976777E-04  0.9998900E-07
  0.1194634E+02  0.1019590E-04  0.1158820E-10  0.8970875E-04  0.9998900E-07
  0.1205203E+02  0.1029054E-04  0.1181680E-10  0.8961411E-04  0.9998901E-07
  0.1209496E+02  0.1032997E-04  0.1191277E-10  0.8957468E-04  0.9998901E-07
  0.1216053E+02  0.1039194E-04  0.1206448E-10  0.8951271E-04  0.9998901E-07
  0.1226070E+02  0.1049061E-04  0.1230824E-10  0.8941403E-04  0.9998901E-07
  0.1230516E+02  0.1053547E-04  0.1241995E-10  0.8936918E-04  0.9998901E-07
  0.1236803E+02  0.1060050E-04  0.1258291E-10  0.8930415E-04  0.9998901E-07
  0.1246406E+02  0.1070347E-04  0.1284336E-10  0.8920118E-04  0.9998901E-07
  0.1254638E+02  0.1079471E-04  0.1307664E-10  0.8910993E-04  0.9998901E-07
  0.1258807E+02  0.1084184E-04  0.1319804E-10  0.8906281E-04  0.9998901E-07
  0.1265782E+02  0.1092254E-04  0.1340739E-10  0.8898211E-04  0.9998902E-07
  0.1276437E+02  0.1105007E-04  0.1374200E-10  0.8885458E-04  0.9998902E-07
  0.1280763E+02  0.1110295E-04  0.1388211E-10  0.8880170E-04  0.9998902E-07
  0.1287372E+02  0.1118535E-04  0.1410202E-10  0.8871929E-04  0.9998902E-07
  0.1297467E+02  0.1131488E-04  0.1445161E-10  0.8858977E-04  0.9998902E-07
  0.1301819E+02  0.1137182E-04  0.1460681E-10  0.8853283E-04  0.9998902E-07
  0.1307973E+02  0.1145370E-04  0.1483163E-10  0.8845095E-04  0.9998903E-07
  0.1317375E+02  0.1158179E-04  0.1518722E-10  0.8832286E-04  0.9998903E-07
  0.1325469E+02  0.1169474E-04  0.1550471E-10  0.8820991E-04  0.9998903E-07
  0.1329621E+02  0.1175357E-04  0.1567155E-10  0.8815108E-04  0.9998903E-07
  0.1336568E+02  0.1185353E-04  0.1595734E-10  0.8805112E-04  0.9998903E-07
  0.1347180E+02  0.1200969E-04  0.1640966E-10  0.8789496E-04  0.9998904E-07
  0.1351491E+02  0.1207424E-04  0.1659874E-10  0.8783040E-04  0.9998904E-07
  0.1358077E+02  0.1217415E-04  0.1689377E-10  0.8773050E-04  0.9998904E-07
  0.1368138E+02  0.1232962E-04  0.1735879E-10  0.8757502E-04  0.9998904E-07
  0.1372519E+02  0.1239841E-04  0.1756681E-10  0.8750623E-04  0.9998905E-07
  0.1378715E+02  0.1249677E-04  0.1786671E-10  0.8740788E-04  0.9998905E-07
  0.1388180E+02  0.1264933E-04  0.1833763E-10  0.8725531E-04  0.9998905E-07
  0.1396341E+02  0.1278314E-04  0.1875641E-10  0.8712150E-04  0.9998905E-07
  0.1400500E+02  0.1285216E-04  0.1897454E-10  0.8705248E-04  0.9998906E-07
  0.1407458E+02  0.1296875E-04  0.1934625E-10  0.8693590E-04  0.9998906E-07
  0.1418088E+02  0.1314932E-04  0.1993015E-10  0.8675532E-04  0.9998906E-07
  0.1422407E+02  0.1322374E-04  0.2017368E-10  0.8668090E-04  0.9998907E-07
  0.1429004E+02  0.1333831E-04  0.2055194E-10  0.8656633E-04  0.9998907E-07
  0.1439082E+02  0.1351530E-04  0.2114421E-10  0.8638934E-04  0.9998907E-07
  0.1443445E+02  0.1359290E-04  0.2140693E-10  0.8631174E-04  0.9998908E-07
  0.1449615E+02  0.1370337E-04  0.2178416E-10  0.8620127E-04  0.9998908E-07
  0.1459039E+02  0.1387361E-04  0.2237299E-10  0.8603103E-04  0.9998908E-07
  0.1467141E+02  0.1402166E-04  0.2289244E-10  0.8588297E-04  0.9998909E-07
  0.1471294E+02  0.1409829E-04  0.2316398E-10  0.8580635E-04  0.9998909E-07
  0.1478244E+02  0.1422715E-04  0.2362485E-10  0.8567749E-04  0.9998909E-07
  0.1488861E+02  0.1442550E-04  0.2434455E-10  0.8547913E-04  0.9998910E-07
  0.1493176E+02  0.1450704E-04  0.2464404E-10  0.8539760E-04  0.9998910E-07
  0.1499767E+02  0.1463212E-04  0.2510760E-10  0.8527252E-04  0.9998911E-07
  0.1509835E+02  0.1482430E-04  0.2582969E-10  0.8508033E-04  0.9998911E-07
  0.1514205E+02  0.1490855E-04  0.2615001E-10  0.8499609E-04  0.9998912E-07
  0.1520384E+02  0.1502811E-04  0.2660856E-10  0.8487652E-04  0.9998912E-07
  0.1529823E+02  0.1521156E-04  0.2732118E-10  0.8469307E-04  0.9998913E-07
  0.1537931E+02  0.1537035E-04  0.2794697E-10  0.8453428E-04  0.9998913E-07
  0.1542085E+02  0.1545232E-04  0.2827324E-10  0.8445232E-04  0.9998914E-07
  0.1549038E+02  0.1558976E-04  0.2882534E-10  0.8431488E-04  0.9998914E-07
  0.1559657E+02  0.1580042E-04  0.2968380E-10  0.8410421E-04  0.9998915E-07
  0.1563974E+02  0.1588684E-04  0.3004025E-10  0.8401779E-04  0.9998915E-07
  0.1570567E+02  0.1601907E-04  0.3059057E-10  0.8388556E-04  0.9998916E-07
  0.1580640E+02  0.1622155E-04  0.3144466E-10  0.8368308E-04  0.9998917E-07
  0.1585003E+02  0.1630998E-04  0.3182205E-10  0.8359465E-04  0.9998917E-07
  0.1591175E+02  0.1643522E-04  0.3236114E-10  0.8346941E-04  0.9998918E-07
  0.1600601E+02  0.1662683E-04  0.3319632E-10  0.8327779E-04  0.9998918E-07
  0.1608682E+02  0.1679192E-04  0.3392606E-10  0.8311270E-04  0.9998919E-07
  0.1612835E+02  0.1687724E-04  0.3430691E-10  0.8302738E-04  0.9998919E-07
  0.1619784E+02  0.1702006E-04  0.3495010E-10  0.8288457E-04  0.9998920E-07
  0.1630398E+02  0.1723841E-04  0.3594731E-10  0.8266621E-04  0.9998921E-07
  0.1634713E+02  0.1732785E-04  0.3636061E-10  0.8257678E-04  0.9998922E-07
  0.1641305E+02  0.1746451E-04  0.3699765E-10  0.8244012E-04  0.9998922E-07
  0.1651374E+02  0.1767335E-04  0.3798399E-10  0.8223128E-04  0.9998923E-07
  0.1655739E+02  0.1776447E-04  0.3841927E-10  0.8214015E-04  0.9998924E-07
  0.1661911E+02  0.1789339E-04  0.3904021E-10  0.8201123E-04  0.9998924E-07
  0.1671340E+02  0.1809034E-04  0.4000040E-10  0.8181428E-04  0.9998925E-07
  0.1679413E+02  0.1825958E-04  0.4083680E-10  0.8164504E-04  0.9998926E-07
  0.1683565E+02  0.1834703E-04  0.4127311E-10  0.8155759E-04  0.9998927E-07
  0.1690514E+02  0.1849330E-04  0.4200915E-10  0.8141132E-04  0.9998928E-07
  0.1701128E+02  0.1871669E-04  0.4314857E-10  0.8118793E-04  0.9998929E-07
  0.1705443E+02  0.1880809E-04  0.4362017E-10  0.8109652E-04  0.9998929E-07
  0.1712035E+02  0.1894770E-04  0.4434646E-10  0.8095692E-04  0.9998930E-07
  0.1722105E+02  0.1916090E-04  0.4546979E-10  0.8074372E-04  0.9998931E-07
  0.1726467E+02  0.1925379E-04  0.4596461E-10  0.8065083E-04  0.9998932E-07
  0.1732636E+02  0.1938517E-04  0.4667006E-10  0.8051945E-04  0.9998933E-07
  0.1742060E+02  0.1958581E-04  0.4776020E-10  0.8031880E-04  0.9998934E-07
  0.1750116E+02  0.1975790E-04  0.4870750E-10  0.8014671E-04  0.9998935E-07
  0.1754268E+02  0.1984693E-04  0.4920213E-10  0.8005768E-04  0.9998936E-07
  0.1761215E+02  0.1999586E-04  0.5003637E-10  0.7990875E-04  0.9998937E-07
  0.1771826E+02  0.2022336E-04  0.5132752E-10  0.7968125E-04  0.9998938E-07
  0.1776141E+02  0.2031641E-04  0.5186152E-10  0.7958820E-04  0.9998939E-07
  0.1782732E+02  0.2045856E-04  0.5268390E-10  0.7944605E-04  0.9998940E-07
  0.1792800E+02  0.2067578E-04  0.5395609E-10  0.7922883E-04  0.9998941E-07
  0.1797161E+02  0.2077039E-04  0.5451615E-10  0.7913421E-04  0.9998942E-07
  0.1803330E+02  0.2090427E-04  0.5531478E-10  0.7900033E-04  0.9998943E-07
  0.1812752E+02  0.2110891E-04  0.5654954E-10  0.7879570E-04  0.9998945E-07
  0.1820799E+02  0.2128431E-04  0.5762151E-10  0.7862029E-04  0.9998946E-07
  0.1824950E+02  0.2137517E-04  0.5818175E-10  0.7852943E-04  0.9998947E-07
  0.1831895E+02  0.2152728E-04  0.5912731E-10  0.7837732E-04  0.9998948E-07
  0.1842505E+02  0.2176000E-04  0.6059250E-10  0.7814460E-04  0.9998950E-07
  0.1846820E+02  0.2185521E-04  0.6119847E-10  0.7804939E-04  0.9998951E-07
  0.1853411E+02  0.2200082E-04  0.6213253E-10  0.7790378E-04  0.9998952E-07
  0.1863478E+02  0.2222371E-04  0.6357977E-10  0.7768089E-04  0.9998954E-07
  0.1867839E+02  0.2232081E-04  0.6421684E-10  0.7758379E-04  0.9998955E-07
  0.1874005E+02  0.2245837E-04  0.6512627E-10  0.7744623E-04  0.9998956E-07
  0.1883424E+02  0.2266907E-04  0.6653505E-10  0.7723552E-04  0.9998958E-07
  0.1891459E+02  0.2284977E-04  0.6775850E-10  0.7705482E-04  0.9998959E-07
  0.1895609E+02  0.2294356E-04  0.6839914E-10  0.7696103E-04  0.9998960E-07
  0.1902553E+02  0.2310087E-04  0.6948232E-10  0.7680372E-04  0.9998962E-07
  0.1913161E+02  0.2334227E-04  0.7116578E-10  0.7656232E-04  0.9998964E-07
  0.1917476E+02  0.2344113E-04  0.7186266E-10  0.7646346E-04  0.9998965E-07
  0.1924066E+02  0.2359263E-04  0.7293907E-10  0.7631195E-04  0.9998967E-07
  0.1934132E+02  0.2382535E-04  0.7461264E-10  0.7607924E-04  0.9998969E-07
  0.1938492E+02  0.2392684E-04  0.7535017E-10  0.7597775E-04  0.9998970E-07
  0.1944657E+02  0.2407094E-04  0.7640544E-10  0.7583364E-04  0.9998971E-07
  0.1954074E+02  0.2429250E-04  0.7804644E-10  0.7561208E-04  0.9998974E-07
  0.1962099E+02  0.2448291E-04  0.7947491E-10  0.7542167E-04  0.9998976E-07
  0.1966249E+02  0.2458201E-04  0.8022500E-10  0.7532257E-04  0.9998977E-07
  0.1973192E+02  0.2474876E-04  0.8149748E-10  0.7515582E-04  0.9998979E-07
  0.1983799E+02  0.2500599E-04  0.8348620E-10  0.7489858E-04  0.9998982E-07
  0.1988113E+02  0.2511155E-04  0.8431134E-10  0.7479302E-04  0.9998983E-07
  0.1994703E+02  0.2527389E-04  0.8559071E-10  0.7463069E-04  0.9998985E-07
  0.2000000E+02  0.2540538E-04  0.8663628E-10  0.7449919E-04  0.9998987E-07
  0.2008092E+02  0.2560814E-04  0.8826492E-10  0.7429643E-04  0.9998989E-07
  0.2011909E+02  0.2570454E-04  0.8904620E-10  0.7420004E-04  0.9998990E-07
  0.2018295E+02  0.2586712E-04  0.9037424E-10  0.7403745E-04  0.9998992E-07
  0.2028051E+02  0.2611889E-04  0.9245645E-10  0.7378568E-04  0.9998996E-07
  0.2032358E+02  0.2623121E-04  0.9339555E-10  0.7367336E-04  0.9998997E-07
  0.2038450E+02  0.2639157E-04  0.9474723E-10  0.7351299E-04  0.9998999E-07
  0.2047756E+02  0.2664036E-04  0.9686979E-10  0.7326420E-04  0.9999003E-07
  0.2056349E+02  0.2687417E-04  0.9889321E-10  0.7303039E-04  0.9999006E-07
  0.2060520E+02  0.2698894E-04  0.9989670E-10  0.7291562E-04  0.9999008E-07
  0.2067500E+02  0.2718360E-04  0.1016142E-09  0.7272095E-04  0.9999010E-07
  0.2078162E+02  0.2748793E-04  0.1043388E-09  0.7241662E-04  0.9999015E-07
  0.2082501E+02  0.2761359E-04  0.1054780E-09  0.7229096E-04  0.9999017E-07
  0.2089130E+02  0.2780859E-04  0.1072622E-09  0.7209597E-04  0.9999020E-07
  0.2099256E+02  0.2811442E-04  0.1101015E-09  0.7179013E-04  0.9999025E-07
  0.2103577E+02  0.2824703E-04  0.1113484E-09  0.7165751E-04  0.9999027E-07
  0.2109688E+02  0.2843789E-04  0.1131596E-09  0.7146665E-04  0.9999030E-07
  0.2119022E+02  0.2873797E-04  0.1160476E-09  0.7116658E-04  0.9999035E-07
  0.2126804E+02  0.2899529E-04  0.1185638E-09  0.7090925E-04  0.9999040E-07
  0.2130938E+02  0.2913437E-04  0.1199392E-09  0.7077016E-04  0.9999042E-07
  0.2137856E+02  0.2937293E-04  0.1223238E-09  0.7053160E-04  0.9999047E-07
  0.2148423E+02  0.2975312E-04  0.1261911E-09  0.7015141E-04  0.9999054E-07
  0.2152722E+02  0.2991133E-04  0.1278249E-09  0.6999320E-04  0.9999057E-07
  0.2159289E+02  0.3016002E-04  0.1304227E-09  0.6974451E-04  0.9999062E-07
  0.2169320E+02  0.3055877E-04  0.1346641E-09  0.6934576E-04  0.9999070E-07
  0.2173711E+02  0.3073801E-04  0.1366016E-09  0.6916651E-04  0.9999073E-07
  0.2179920E+02  0.3099994E-04  0.1394677E-09  0.6890458E-04  0.9999079E-07
  0.2189406E+02  0.3142256E-04  0.1441807E-09  0.6848195E-04  0.9999088E-07
  0.2197478E+02  0.3180178E-04  0.1485041E-09  0.6810273E-04  0.9999097E-07
  0.2201633E+02  0.3200298E-04  0.1508347E-09  0.6790152E-04  0.9999102E-07
  0.2208585E+02  0.3235585E-04  0.1549847E-09  0.6754865E-04  0.9999110E-07
  0.2219206E+02  0.3294098E-04  0.1620447E-09  0.6696352E-04  0.9999126E-07
  0.2223526E+02  0.3318873E-04  0.1651022E-09  0.6671576E-04  0.9999132E-07
  0.2230125E+02  0.3358873E-04  0.1701259E-09  0.6631576E-04  0.9999143E-07
  0.2240206E+02  0.3426125E-04  0.1788202E-09  0.6564323E-04  0.9999163E-07
  0.2244547E+02  0.3456520E-04  0.1828537E-09  0.6533928E-04  0.9999172E-07
  0.2250688E+02  0.3502313E-04  0.1890559E-09  0.6488134E-04  0.9999186E-07
  0.2260067E+02  0.3580255E-04  0.1999664E-09  0.6410191E-04  0.9999213E-07
  0.2267998E+02  0.3653401E-04  0.2106241E-09  0.6337043E-04  0.9999240E-07
  0.2272141E+02  0.3693918E-04  0.2167072E-09  0.6296526E-04  0.9999255E-07
  0.2279073E+02  0.3768658E-04  0.2282750E-09  0.6221785E-04  0.9999286E-07
  0.2289662E+02  0.3905397E-04  0.2506495E-09  0.6085043E-04  0.9999351E-07
  0.2293970E+02  0.3965811E-04  0.2610560E-09  0.6024629E-04  0.9999381E-07
  0.2300551E+02  0.4070039E-04  0.2797990E-09  0.5920398E-04  0.9999439E-07
  0.2310604E+02  0.4267851E-04  0.3182924E-09  0.5722583E-04  0.9999603E-07
  0.2314964E+02  0.4363800E-04  0.3384396E-09  0.5626631E-04  0.9999702E-07
  0.2321129E+02  0.4523419E-04  0.3742691E-09  0.5467008E-04  0.1000000E-06
  0.2330548E+02  0.4837327E-04  0.4540915E-09  0.5153087E-04  0.1000545E-06
  0.2338447E+02  0.5205303E-04  0.5662836E-09  0.4784737E-04  0.1036869E-06
  0.2342580E+02  0.5436918E-04  0.6492896E-09  0.4552680E-04  0.1080213E-06
  0.2349496E+02  0.5942805E-04  0.8734228E-09  0.4043510E-04  0.1406234E-06
  0.2360061E+02  0.6454307E-04  0.2042676E-08  0.2039388E-04  0.1506566E-04
  0.2364326E+02  0.6517511E-04  0.5032565E-08  0.8440616E-05  0.2638389E-04
  0.2370842E+02  0.6261566E-04  0.7806587E-06  0.5022324E-07  0.3655810E-04
  0.2373595E+02  0.6126216E-04  0.1246462E-05  0.3010963E-07  0.3746592E-04
  0.2378201E+02  0.5953203E-04  0.1748359E-05  0.2027080E-07  0.3870398E-04
  0.2385909E+02  0.5742972E-04  0.2212713E-05  0.1490556E-07  0.4034731E-04
  0.2398806E+02  0.5504858E-04  0.2563782E-05  0.1181983E-07  0.4238046E-04
  0.2420388E+02  0.5264194E-04  0.2762126E-05  0.1003276E-07  0.4459055E-04
  0.2456500E+02  0.5077523E-04  0.2877523E-05  0.8959527E-08  0.4634294E-04
  0.2511663E+02  0.5498704E-04  0.4130198E-05  0.7320653E-08  0.4088009E-04
  0.2595925E+02  0.6974216E-04  0.1828160E-04  0.2660582E-08  0.1197823E-04
  0.2724638E+02  0.5891730E-04  0.3909735E-04  0.8878475E-09  0.1989112E-05
  0.2921251E+02  0.5200924E-04  0.4727744E-04  0.5721462E-09  0.7174009E-06
  0.3250246E+02  0.5011008E-04  0.4936938E-04  0.5086190E-09  0.5246858E-06
  0.3750246E+02  0.4979164E-04  0.4971248E-04  0.4987092E-09  0.5000261E-06
  0.4250246E+02  0.4975733E-04  0.4974906E-04  0.4976560E-09  0.4977653E-06
  0.4750246E+02  0.4975372E-04  0.4975287E-04  0.4975457E-09  0.4975548E-06
  0.5000000E+02  0.4975339E-04  0.4975323E-04  0.4975354E-09  0.4975368E-06
