title = "dataset wall1"
variables = "x", "y", "z","fe_0_h2o_3","fe_0_cr","fe_0_tce","fe_0_cdce","fe_0_vc","fe_0_so4_2","calcite","siderite(d)","fe(oh)2(s)","cr(oh)3(a)","mackinawite","ferrihydrite","porosity"
zone t = "phi_i, T =  2.400E+02 days", i =   68, j =    1, k =    1,  f=point
  0.0000000E+00  0.0000000E+00  0.0000000E+00  0.1000000E-09  0.1000000E-09  0.1000000E-09  0.1000000E-09  0.1000000E-09  0.1000000E-09  0.1000000E-09  0.1000000E-09  0.1000000E-09  0.2971670E-07  0.1000000E-09  0.1000000E-09  0.1000000E+01
  0.1000000E+00  0.0000000E+00  0.0000000E+00  0.1000000E-09  0.1000000E-09  0.1000000E-09  0.1000000E-09  0.1000000E-09  0.1000000E-09  0.1000000E-09  0.1000000E-09  0.1000000E-09  0.3092968E-09  0.1000000E-09  0.1000000E-09  0.1000000E+01
  0.2000000E+00  0.0000000E+00  0.0000000E+00  0.1000000E-09  0.1000000E-09  0.1000000E-09  0.1000000E-09  0.1000000E-09  0.1000000E-09  0.1000000E-09  0.1000000E-09  0.1000000E-09  0.2313114E-09  0.1000000E-09  0.1000000E-09  0.1000000E+01
  0.3000000E+00  0.0000000E+00  0.0000000E+00  0.1000000E-09  0.1000000E-09  0.1000000E-09  0.1000000E-09  0.1000000E-09  0.1000000E-09  0.1000000E-09  0.1000000E-09  0.1000000E-09  0.2311045E-09  0.1000000E-09  0.1000000E-09  0.1000000E+01
  0.4000000E+00  0.0000000E+00  0.0000000E+00  0.1000000E-09  0.1000000E-09  0.1000000E-09  0.1000000E-09  0.1000000E-09  0.1000000E-09  0.1000000E-09  0.1000000E-09  0.1000000E-09  0.2311040E-09  0.1000000E-09  0.1000000E-09  0.1000000E+01
  0.5000000E+00  0.0000000E+00  0.0000000E+00  0.1000000E-09  0.1000000E-09  0.1000000E-09  0.1000000E-09  0.1000000E-09  0.1000000E-09  0.1000000E-09  0.1000000E-09  0.1000000E-09  0.2311040E-09  0.1000000E-09  0.1000000E-09  0.1000000E+01
  0.6000000E+00  0.0000000E+00  0.0000000E+00  0.1000000E-09  0.1000000E-09  0.1000000E-09  0.1000000E-09  0.1000000E-09  0.1000000E-09  0.1000000E-09  0.1000000E-09  0.1000000E-09  0.2311040E-09  0.1000000E-09  0.1000000E-09  0.1000000E+01
  0.7000000E+00  0.0000000E+00  0.0000000E+00  0.1000000E-09  0.1000000E-09  0.1000000E-09  0.1000000E-09  0.1000000E-09  0.1000000E-09  0.1000000E-09  0.1000000E-09  0.1000000E-09  0.2311040E-09  0.1000000E-09  0.1000000E-09  0.1000000E+01
  0.8000000E+00  0.0000000E+00  0.0000000E+00  0.1000000E-09  0.1000000E-09  0.1000000E-09  0.1000000E-09  0.1000000E-09  0.1000000E-09  0.1000000E-09  0.1000000E-09  0.1000000E-09  0.2311040E-09  0.1000000E-09  0.1000000E-09  0.1000000E+01
  0.9000000E+00  0.0000000E+00  0.0000000E+00  0.1000000E-09  0.1000000E-09  0.1000000E-09  0.1000000E-09  0.1000000E-09  0.1000000E-09  0.1000000E-09  0.1000000E-09  0.1000000E-09  0.2311040E-09  0.1000000E-09  0.1000000E-09  0.1000000E+01
  0.1000000E+01  0.0000000E+00  0.0000000E+00  0.1000000E-09  0.1000000E-09  0.1000000E-09  0.1000000E-09  0.1000000E-09  0.1000000E-09  0.1000000E-09  0.1000000E-09  0.1000000E-09  0.2311040E-09  0.1000000E-09  0.1000000E-09  0.1000000E+01
  0.1100000E+01  0.0000000E+00  0.0000000E+00  0.1000000E-09  0.1000000E-09  0.1000000E-09  0.1000000E-09  0.1000000E-09  0.1000000E-09  0.1000000E-09  0.1000000E-09  0.1000000E-09  0.2311040E-09  0.1000000E-09  0.1000000E-09  0.1000000E+01
  0.1200000E+01  0.0000000E+00  0.0000000E+00  0.1000000E-09  0.1000000E-09  0.1000000E-09  0.1000000E-09  0.1000000E-09  0.1000000E-09  0.1000000E-09  0.1000000E-09  0.1000000E-09  0.2311040E-09  0.1000000E-09  0.1000000E-09  0.1000000E+01
  0.1300000E+01  0.0000000E+00  0.0000000E+00  0.1000000E-09  0.1000000E-09  0.1000000E-09  0.1000000E-09  0.1000000E-09  0.1000000E-09  0.1000000E-09  0.1000000E-09  0.1000000E-09  0.2311040E-09  0.1000000E-09  0.1000000E-09  0.1000000E+01
  0.1400000E+01  0.0000000E+00  0.0000000E+00  0.1000000E-09  0.1000000E-09  0.1000000E-09  0.1000000E-09  0.1000000E-09  0.1000000E-09  0.1000000E-09  0.1000000E-09  0.1000000E-09  0.2311039E-09  0.1000000E-09  0.1000000E-09  0.1000000E+01
  0.1500000E+01  0.0000000E+00  0.0000000E+00  0.1000000E-09  0.1000000E-09  0.1000000E-09  0.1000000E-09  0.1000000E-09  0.1000000E-09  0.1000000E-09  0.1000000E-09  0.1000000E-09  0.2311039E-09  0.1000000E-09  0.1000000E-09  0.1000000E+01
  0.1600000E+01  0.0000000E+00  0.0000000E+00  0.1000000E-09  0.1000000E-09  0.1000000E-09  0.1000000E-09  0.1000000E-09  0.1000000E-09  0.1000000E-09  0.1000000E-09  0.1000000E-09  0.2311039E-09  0.1000000E-09  0.1000000E-09  0.1000000E+01
  0.1662500E+01  0.0000000E+00  0.0000000E+00  0.1000000E-09  0.1000000E-09  0.1000000E-09  0.1000000E-09  0.1000000E-09  0.1000000E-09  0.1000000E-09  0.1000000E-09  0.1000000E-09  0.2311039E-09  0.1000000E-09  0.1000000E-09  0.1000000E+01
  0.1687500E+01  0.0000000E+00  0.0000000E+00  0.1000000E-09  0.1000000E-09  0.1000000E-09  0.1000000E-09  0.1000000E-09  0.1000000E-09  0.1000000E-09  0.1000000E-09  0.1000000E-09  0.2311039E-09  0.1000000E-09  0.1000000E-09  0.1000000E+01
  0.1712500E+01  0.0000000E+00  0.0000000E+00  0.1000000E-09  0.1000000E-09  0.1000000E-09  0.1000000E-09  0.1000000E-09  0.1000000E-09  0.1000000E-09  0.1000000E-09  0.1000000E-09  0.2311039E-09  0.1000000E-09  0.1000000E-09  0.1000000E+01
  0.1737500E+01  0.0000000E+00  0.0000000E+00  0.1000000E-09  0.1000000E-09  0.1000000E-09  0.1000000E-09  0.1000000E-09  0.1000000E-09  0.1000000E-09  0.1000000E-09  0.1000000E-09  0.2311039E-09  0.1000000E-09  0.1000000E-09  0.1000000E+01
  0.1762500E+01  0.0000000E+00  0.0000000E+00  0.1000000E-09  0.1000000E-09  0.1000000E-09  0.1000000E-09  0.1000000E-09  0.1000000E-09  0.1000000E-09  0.1000000E-09  0.1000000E-09  0.2311039E-09  0.1000000E-09  0.1000000E-09  0.1000000E+01
  0.1787500E+01  0.0000000E+00  0.0000000E+00  0.1000000E-09  0.1000000E-09  0.1000000E-09  0.1000000E-09  0.1000000E-09  0.1000000E-09  0.1000000E-09  0.1000000E-09  0.1000000E-09  0.2311039E-09  0.1000000E-09  0.1000000E-09  0.1000000E+01
  0.1812500E+01  0.0000000E+00  0.0000000E+00  0.4977373E+00  0.4977373E+00  0.4977373E+00  0.4977373E+00  0.4977373E+00  0.4977373E+00  0.1460910E-02  0.3321757E-02  0.1000000E-09  0.1747610E-02  0.7403980E-03  0.4064346E-03  0.4945855E+00
  0.1837500E+01  0.0000000E+00  0.0000000E+00  0.4982412E+00  0.4982412E+00  0.4982412E+00  0.4982412E+00  0.4982412E+00  0.4982412E+00  0.1247211E-02  0.1034893E-02  0.2322987E-02  0.6765467E-05  0.6326981E-03  0.5271988E-06  0.4965137E+00
  0.1862500E+01  0.0000000E+00  0.0000000E+00  0.4984823E+00  0.4984823E+00  0.4984823E+00  0.4984823E+00  0.4984823E+00  0.4984823E+00  0.4050554E-03  0.2032551E-03  0.2460735E-02  0.4940482E-05  0.5409148E-03  0.1000000E-09  0.4979028E+00
  0.1887500E+01  0.0000000E+00  0.0000000E+00  0.4986816E+00  0.4986816E+00  0.4986816E+00  0.4986816E+00  0.4986816E+00  0.4986816E+00  0.1135865E-03  0.4252138E-04  0.2209068E-02  0.4920356E-05  0.4627787E-03  0.1000000E-09  0.4984856E+00
  0.1912500E+01  0.0000000E+00  0.0000000E+00  0.4988496E+00  0.4988496E+00  0.4988496E+00  0.4988496E+00  0.4988496E+00  0.4988496E+00  0.3823126E-04  0.1000000E-09  0.1959961E-02  0.4931733E-05  0.3962520E-03  0.1000000E-09  0.4987511E+00
  0.1937500E+01  0.0000000E+00  0.0000000E+00  0.4989913E+00  0.4989913E+00  0.4989913E+00  0.4989913E+00  0.4989913E+00  0.4989913E+00  0.1947761E-04  0.1000000E-09  0.1726147E-02  0.4945858E-05  0.3396017E-03  0.1000000E-09  0.4989186E+00
  0.1962500E+01  0.0000000E+00  0.0000000E+00  0.4991115E+00  0.4991115E+00  0.4991115E+00  0.4991115E+00  0.4991115E+00  0.4991115E+00  0.1433477E-04  0.1000000E-09  0.1529499E-02  0.4961783E-05  0.2913634E-03  0.1000000E-09  0.4990484E+00
  0.1987500E+01  0.0000000E+00  0.0000000E+00  0.4992136E+00  0.4992136E+00  0.4992136E+00  0.4992136E+00  0.4992136E+00  0.4992136E+00  0.1254677E-04  0.1000000E-09  0.1363125E-02  0.4976968E-05  0.2502868E-03  0.1000000E-09  0.4991555E+00
  0.2012500E+01  0.0000000E+00  0.0000000E+00  0.4993004E+00  0.4993004E+00  0.4993004E+00  0.4993004E+00  0.4993004E+00  0.4993004E+00  0.1171149E-04  0.1000000E-09  0.1221863E-02  0.4990653E-05  0.2153084E-03  0.1000000E-09  0.4992457E+00
  0.2037500E+01  0.0000000E+00  0.0000000E+00  0.4993744E+00  0.4993744E+00  0.4993744E+00  0.4993744E+00  0.4993744E+00  0.4993744E+00  0.1122111E-04  0.1000000E-09  0.1101630E-02  0.5002691E-05  0.1855230E-03  0.7592246E-08  0.4993222E+00
  0.2062500E+01  0.0000000E+00  0.0000000E+00  0.4994374E+00  0.4994374E+00  0.4994374E+00  0.4994374E+00  0.4994374E+00  0.4994374E+00  0.1089279E-04  0.1000000E-09  0.9990765E-03  0.5013059E-05  0.1601596E-03  0.5323096E-06  0.4993869E+00
  0.2087500E+01  0.0000000E+00  0.0000000E+00  0.4994913E+00  0.4994913E+00  0.4994913E+00  0.4994913E+00  0.4994913E+00  0.4994913E+00  0.1065541E-04  0.1000000E-09  0.9114239E-03  0.5022071E-05  0.1385618E-03  0.6318803E-06  0.4994424E+00
  0.2112500E+01  0.0000000E+00  0.0000000E+00  0.4995373E+00  0.4995373E+00  0.4995373E+00  0.4995373E+00  0.4995373E+00  0.4995373E+00  0.1047607E-04  0.1000000E-09  0.8363471E-03  0.5029819E-05  0.1201706E-03  0.7110625E-06  0.4994899E+00
  0.2137500E+01  0.0000000E+00  0.0000000E+00  0.4995768E+00  0.4995768E+00  0.4995768E+00  0.4995768E+00  0.4995768E+00  0.4995768E+00  0.1033643E-04  0.1000000E-09  0.7718965E-03  0.5036462E-05  0.1045099E-03  0.7788584E-06  0.4995306E+00
  0.2162500E+01  0.0000000E+00  0.0000000E+00  0.4996107E+00  0.4996107E+00  0.4996107E+00  0.4996107E+00  0.4996107E+00  0.4996107E+00  0.1022541E-04  0.1000000E-09  0.7164339E-03  0.5042148E-05  0.9117450E-04  0.8369003E-06  0.4995656E+00
  0.2187500E+01  0.0000000E+00  0.0000000E+00  0.4996398E+00  0.4996398E+00  0.4996398E+00  0.4996398E+00  0.4996398E+00  0.4996398E+00  0.1013568E-04  0.1000000E-09  0.6685809E-03  0.5047007E-05  0.7981910E-04  0.8865267E-06  0.4995957E+00
  0.2212500E+01  0.0000000E+00  0.0000000E+00  0.4996649E+00  0.4996649E+00  0.4996649E+00  0.4996649E+00  0.4996649E+00  0.4996649E+00  0.1006222E-04  0.1000000E-09  0.6271766E-03  0.5051156E-05  0.7014980E-04  0.9289156E-06  0.4996217E+00
  0.2237500E+01  0.0000000E+00  0.0000000E+00  0.4996866E+00  0.4996866E+00  0.4996866E+00  0.4996866E+00  0.4996866E+00  0.4996866E+00  0.1000145E-04  0.1000000E-09  0.5912427E-03  0.5054696E-05  0.6191630E-04  0.9650947E-06  0.4996442E+00
  0.2262500E+01  0.0000000E+00  0.0000000E+00  0.4997054E+00  0.4997054E+00  0.4997054E+00  0.4997054E+00  0.4997054E+00  0.4997054E+00  0.9950760E-05  0.1000000E-09  0.5599540E-03  0.5057715E-05  0.5490545E-04  0.9959553E-06  0.4996637E+00
  0.2287500E+01  0.0000000E+00  0.0000000E+00  0.4997217E+00  0.4997217E+00  0.4997217E+00  0.4997217E+00  0.4997217E+00  0.4997217E+00  0.9908178E-05  0.1000000E-09  0.5326143E-03  0.5060289E-05  0.4893574E-04  0.1022266E-05  0.4996807E+00
  0.2312500E+01  0.0000000E+00  0.0000000E+00  0.4997360E+00  0.4997360E+00  0.4997360E+00  0.4997360E+00  0.4997360E+00  0.4997360E+00  0.9872198E-05  0.1000000E-09  0.5086360E-03  0.5062482E-05  0.4385259E-04  0.1044688E-05  0.4996956E+00
  0.2337500E+01  0.0000000E+00  0.0000000E+00  0.4997484E+00  0.4997484E+00  0.4997484E+00  0.4997484E+00  0.4997484E+00  0.4997484E+00  0.9841641E-05  0.1000000E-09  0.4875224E-03  0.5064350E-05  0.3952438E-04  0.1063790E-05  0.4997086E+00
  0.2362500E+01  0.0000000E+00  0.0000000E+00  0.4997593E+00  0.4997593E+00  0.4997593E+00  0.4997593E+00  0.4997593E+00  0.4997593E+00  0.9815573E-05  0.1000000E-09  0.4688540E-03  0.5065940E-05  0.3583901E-04  0.1080057E-05  0.4997200E+00
  0.2387500E+01  0.0000000E+00  0.0000000E+00  0.4997689E+00  0.4997689E+00  0.4997689E+00  0.4997689E+00  0.4997689E+00  0.4997689E+00  0.9793246E-05  0.1000000E-09  0.4522759E-03  0.5067294E-05  0.3270104E-04  0.1093907E-05  0.4997301E+00
  0.2412500E+01  0.0000000E+00  0.0000000E+00  0.1000000E-09  0.1000000E-09  0.1000000E-09  0.1000000E-09  0.1000000E-09  0.1000000E-09  0.2515856E-05  0.1000000E-09  0.6622383E-05  0.3611850E-07  0.1000000E-09  0.2561188E-08  0.9999908E+00
  0.2437500E+01  0.0000000E+00  0.0000000E+00  0.1000000E-09  0.1000000E-09  0.1000000E-09  0.1000000E-09  0.1000000E-09  0.1000000E-09  0.1561753E-05  0.1000000E-09  0.3806421E-06  0.2752604E-08  0.1000000E-09  0.6088790E-08  0.9999980E+00
  0.2462500E+01  0.0000000E+00  0.0000000E+00  0.1000000E-09  0.1000000E-09  0.1000000E-09  0.1000000E-09  0.1000000E-09  0.1000000E-09  0.1337846E-05  0.1000000E-09  0.1898071E-06  0.1980498E-08  0.1000000E-09  0.5521265E-08  0.9999985E+00
  0.2487500E+01  0.0000000E+00  0.0000000E+00  0.1000000E-09  0.1000000E-09  0.1000000E-09  0.1000000E-09  0.1000000E-09  0.1000000E-09  0.1197152E-05  0.1000000E-09  0.1329595E-06  0.1787100E-08  0.1000000E-09  0.5022250E-08  0.9999987E+00
  0.2512500E+01  0.0000000E+00  0.0000000E+00  0.1000000E-09  0.1000000E-09  0.1000000E-09  0.1000000E-09  0.1000000E-09  0.1000000E-09  0.1055185E-05  0.1000000E-09  0.9371819E-07  0.1676161E-08  0.1000000E-09  0.4789512E-08  0.9999988E+00
  0.2537500E+01  0.0000000E+00  0.0000000E+00  0.1000000E-09  0.1000000E-09  0.1000000E-09  0.1000000E-09  0.1000000E-09  0.1000000E-09  0.1028999E-05  0.1000000E-09  0.7464643E-07  0.1596356E-08  0.1000000E-09  0.4935231E-08  0.9999989E+00
  0.2600000E+01  0.0000000E+00  0.0000000E+00  0.1000000E-09  0.1000000E-09  0.1000000E-09  0.1000000E-09  0.1000000E-09  0.1000000E-09  0.2111575E-05  0.1000000E-09  0.7197786E-07  0.3421655E-08  0.1000000E-09  0.1174432E-07  0.9999978E+00
  0.2700000E+01  0.0000000E+00  0.0000000E+00  0.1000000E-09  0.1000000E-09  0.1000000E-09  0.1000000E-09  0.1000000E-09  0.1000000E-09  0.2029600E-05  0.1000000E-09  0.4039232E-07  0.3032155E-08  0.1000000E-09  0.9698949E-08  0.9999979E+00
  0.2800000E+01  0.0000000E+00  0.0000000E+00  0.1000000E-09  0.1000000E-09  0.1000000E-09  0.1000000E-09  0.1000000E-09  0.1000000E-09  0.1603504E-05  0.1000000E-09  0.1993267E-07  0.2740687E-08  0.1000000E-09  0.8205950E-08  0.9999984E+00
  0.2900000E+01  0.0000000E+00  0.0000000E+00  0.1000000E-09  0.1000000E-09  0.1000000E-09  0.1000000E-09  0.1000000E-09  0.1000000E-09  0.1565332E-05  0.1000000E-09  0.1478970E-07  0.2492282E-08  0.1000000E-09  0.7405369E-08  0.9999984E+00
  0.3000000E+01  0.0000000E+00  0.0000000E+00  0.1000000E-09  0.1000000E-09  0.1000000E-09  0.1000000E-09  0.1000000E-09  0.1000000E-09  0.1470193E-05  0.1000000E-09  0.1053140E-07  0.2279205E-08  0.1000000E-09  0.6767443E-08  0.9999985E+00
  0.3100000E+01  0.0000000E+00  0.0000000E+00  0.1000000E-09  0.1000000E-09  0.1000000E-09  0.1000000E-09  0.1000000E-09  0.1000000E-09  0.1402293E-05  0.1000000E-09  0.8803127E-08  0.2161559E-08  0.1000000E-09  0.6186881E-08  0.9999986E+00
  0.3200000E+01  0.0000000E+00  0.0000000E+00  0.1000000E-09  0.1000000E-09  0.1000000E-09  0.1000000E-09  0.1000000E-09  0.1000000E-09  0.1199824E-05  0.1000000E-09  0.5375312E-08  0.2056704E-08  0.1000000E-09  0.5701495E-08  0.9999988E+00
  0.3300000E+01  0.0000000E+00  0.0000000E+00  0.1000000E-09  0.1000000E-09  0.1000000E-09  0.1000000E-09  0.1000000E-09  0.1000000E-09  0.1192719E-05  0.1000000E-09  0.4700676E-08  0.1902942E-08  0.1000000E-09  0.5338783E-08  0.9999988E+00
  0.3400000E+01  0.0000000E+00  0.0000000E+00  0.1000000E-09  0.1000000E-09  0.1000000E-09  0.1000000E-09  0.1000000E-09  0.1000000E-09  0.1069329E-05  0.1000000E-09  0.3947555E-08  0.1848830E-08  0.1000000E-09  0.5028862E-08  0.9999989E+00
  0.3500000E+01  0.0000000E+00  0.0000000E+00  0.1000000E-09  0.1000000E-09  0.1000000E-09  0.1000000E-09  0.1000000E-09  0.1000000E-09  0.1047748E-05  0.1000000E-09  0.3371870E-08  0.1741439E-08  0.1000000E-09  0.4785426E-08  0.9999989E+00
  0.3600000E+01  0.0000000E+00  0.0000000E+00  0.1000000E-09  0.1000000E-09  0.1000000E-09  0.1000000E-09  0.1000000E-09  0.1000000E-09  0.9793076E-06  0.1000000E-09  0.3188779E-08  0.1695759E-08  0.1000000E-09  0.4608239E-08  0.9999990E+00
  0.3700000E+01  0.0000000E+00  0.0000000E+00  0.1000000E-09  0.1000000E-09  0.1000000E-09  0.1000000E-09  0.1000000E-09  0.1000000E-09  0.9534925E-06  0.1000000E-09  0.3419409E-08  0.1632122E-08  0.1000000E-09  0.4529952E-08  0.9999990E+00
  0.3800000E+01  0.0000000E+00  0.0000000E+00  0.1000000E-09  0.1000000E-09  0.1000000E-09  0.1000000E-09  0.1000000E-09  0.1000000E-09  0.9196238E-06  0.1000000E-09  0.3795017E-08  0.1622431E-08  0.1000000E-09  0.4664977E-08  0.9999991E+00
  0.3900000E+01  0.0000000E+00  0.0000000E+00  0.1000000E-09  0.1000000E-09  0.1000000E-09  0.1000000E-09  0.1000000E-09  0.1000000E-09  0.8960715E-06  0.1000000E-09  0.3275652E-08  0.1628669E-08  0.1000000E-09  0.5085677E-08  0.9999991E+00
  0.4000000E+01  0.0000000E+00  0.0000000E+00  0.1000000E-09  0.1000000E-09  0.1000000E-09  0.1000000E-09  0.1000000E-09  0.1000000E-09  0.7029126E-06  0.1000000E-09  0.2825400E-08  0.1202725E-08  0.1000000E-09  0.4093398E-08  0.9999993E+00
