title = "dataset wall1"
variables = "x","y","z","pH","ionic strength", "C-Alk [eq/L]","NC-Alk [eq/L]","Alk [eq/L]","C-Alk [mg/L CaCO_3]","NC-Alk [mg/L CACO_3]","Alk [mg/L CaCO_3]","temperature"
zone t = "Master variables, T =  2.400E+02 days", i =   68, j =    1, k =    1,  f=point
  0.0000000E+00  0.0000000E+00  0.0000000E+00  0.6289997E+01  0.6277754E-02  0.0000000E+00  0.0000000E+00  0.0000000E+00  0.0000000E+00  0.0000000E+00  0.0000000E+00  0.2500000E+02
  0.1000000E+00  0.0000000E+00  0.0000000E+00  0.6289997E+01  0.6277753E-02  0.0000000E+00  0.0000000E+00  0.0000000E+00  0.0000000E+00  0.0000000E+00  0.0000000E+00  0.2500000E+02
  0.2000000E+00  0.0000000E+00  0.0000000E+00  0.6289997E+01  0.6277753E-02  0.0000000E+00  0.0000000E+00  0.0000000E+00  0.0000000E+00  0.0000000E+00  0.0000000E+00  0.2500000E+02
  0.3000000E+00  0.0000000E+00  0.0000000E+00  0.6289997E+01  0.6277753E-02  0.0000000E+00  0.0000000E+00  0.0000000E+00  0.0000000E+00  0.0000000E+00  0.0000000E+00  0.2500000E+02
  0.4000000E+00  0.0000000E+00  0.0000000E+00  0.6289997E+01  0.6277753E-02  0.0000000E+00  0.0000000E+00  0.0000000E+00  0.0000000E+00  0.0000000E+00  0.0000000E+00  0.2500000E+02
  0.5000000E+00  0.0000000E+00  0.0000000E+00  0.6289997E+01  0.6277753E-02  0.0000000E+00  0.0000000E+00  0.0000000E+00  0.0000000E+00  0.0000000E+00  0.0000000E+00  0.2500000E+02
  0.6000000E+00  0.0000000E+00  0.0000000E+00  0.6289997E+01  0.6277753E-02  0.0000000E+00  0.0000000E+00  0.0000000E+00  0.0000000E+00  0.0000000E+00  0.0000000E+00  0.2500000E+02
  0.7000000E+00  0.0000000E+00  0.0000000E+00  0.6289997E+01  0.6277753E-02  0.0000000E+00  0.0000000E+00  0.0000000E+00  0.0000000E+00  0.0000000E+00  0.0000000E+00  0.2500000E+02
  0.8000000E+00  0.0000000E+00  0.0000000E+00  0.6289997E+01  0.6277753E-02  0.0000000E+00  0.0000000E+00  0.0000000E+00  0.0000000E+00  0.0000000E+00  0.0000000E+00  0.2500000E+02
  0.9000000E+00  0.0000000E+00  0.0000000E+00  0.6289997E+01  0.6277753E-02  0.0000000E+00  0.0000000E+00  0.0000000E+00  0.0000000E+00  0.0000000E+00  0.0000000E+00  0.2500000E+02
  0.1000000E+01  0.0000000E+00  0.0000000E+00  0.6289997E+01  0.6277753E-02  0.0000000E+00  0.0000000E+00  0.0000000E+00  0.0000000E+00  0.0000000E+00  0.0000000E+00  0.2500000E+02
  0.1100000E+01  0.0000000E+00  0.0000000E+00  0.6289997E+01  0.6277753E-02  0.0000000E+00  0.0000000E+00  0.0000000E+00  0.0000000E+00  0.0000000E+00  0.0000000E+00  0.2500000E+02
  0.1200000E+01  0.0000000E+00  0.0000000E+00  0.6289997E+01  0.6277753E-02  0.0000000E+00  0.0000000E+00  0.0000000E+00  0.0000000E+00  0.0000000E+00  0.0000000E+00  0.2500000E+02
  0.1300000E+01  0.0000000E+00  0.0000000E+00  0.6289997E+01  0.6277753E-02  0.0000000E+00  0.0000000E+00  0.0000000E+00  0.0000000E+00  0.0000000E+00  0.0000000E+00  0.2500000E+02
  0.1400000E+01  0.0000000E+00  0.0000000E+00  0.6289997E+01  0.6277753E-02  0.0000000E+00  0.0000000E+00  0.0000000E+00  0.0000000E+00  0.0000000E+00  0.0000000E+00  0.2500000E+02
  0.1500000E+01  0.0000000E+00  0.0000000E+00  0.6289997E+01  0.6277753E-02  0.0000000E+00  0.0000000E+00  0.0000000E+00  0.0000000E+00  0.0000000E+00  0.0000000E+00  0.2500000E+02
  0.1600000E+01  0.0000000E+00  0.0000000E+00  0.6289997E+01  0.6277753E-02  0.0000000E+00  0.0000000E+00  0.0000000E+00  0.0000000E+00  0.0000000E+00  0.0000000E+00  0.2500000E+02
  0.1662500E+01  0.0000000E+00  0.0000000E+00  0.6289997E+01  0.6277753E-02  0.0000000E+00  0.0000000E+00  0.0000000E+00  0.0000000E+00  0.0000000E+00  0.0000000E+00  0.2500000E+02
  0.1687500E+01  0.0000000E+00  0.0000000E+00  0.6289997E+01  0.6277753E-02  0.0000000E+00  0.0000000E+00  0.0000000E+00  0.0000000E+00  0.0000000E+00  0.0000000E+00  0.2500000E+02
  0.1712500E+01  0.0000000E+00  0.0000000E+00  0.6289997E+01  0.6277753E-02  0.0000000E+00  0.0000000E+00  0.0000000E+00  0.0000000E+00  0.0000000E+00  0.0000000E+00  0.2500000E+02
  0.1737500E+01  0.0000000E+00  0.0000000E+00  0.6289997E+01  0.6277753E-02  0.0000000E+00  0.0000000E+00  0.0000000E+00  0.0000000E+00  0.0000000E+00  0.0000000E+00  0.2500000E+02
  0.1762500E+01  0.0000000E+00  0.0000000E+00  0.6289997E+01  0.6277753E-02  0.0000000E+00  0.0000000E+00  0.0000000E+00  0.0000000E+00  0.0000000E+00  0.0000000E+00  0.2500000E+02
  0.1787500E+01  0.0000000E+00  0.0000000E+00  0.6289997E+01  0.6277753E-02  0.0000000E+00  0.0000000E+00  0.0000000E+00  0.0000000E+00  0.0000000E+00  0.0000000E+00  0.2500000E+02
  0.1812500E+01  0.0000000E+00  0.0000000E+00  0.9232549E+01  0.5622993E-02  0.0000000E+00  0.0000000E+00  0.0000000E+00  0.0000000E+00  0.0000000E+00  0.0000000E+00  0.2500000E+02
  0.1837500E+01  0.0000000E+00  0.0000000E+00  0.1004984E+02  0.5019641E-02  0.0000000E+00  0.0000000E+00  0.0000000E+00  0.0000000E+00  0.0000000E+00  0.0000000E+00  0.2500000E+02
  0.1862500E+01  0.0000000E+00  0.0000000E+00  0.1043953E+02  0.4800107E-02  0.0000000E+00  0.0000000E+00  0.0000000E+00  0.0000000E+00  0.0000000E+00  0.0000000E+00  0.2500000E+02
  0.1887500E+01  0.0000000E+00  0.0000000E+00  0.1066186E+02  0.4679512E-02  0.0000000E+00  0.0000000E+00  0.0000000E+00  0.0000000E+00  0.0000000E+00  0.0000000E+00  0.2500000E+02
  0.1912500E+01  0.0000000E+00  0.0000000E+00  0.1080186E+02  0.4585670E-02  0.0000000E+00  0.0000000E+00  0.0000000E+00  0.0000000E+00  0.0000000E+00  0.0000000E+00  0.2500000E+02
  0.1937500E+01  0.0000000E+00  0.0000000E+00  0.1089867E+02  0.4503864E-02  0.0000000E+00  0.0000000E+00  0.0000000E+00  0.0000000E+00  0.0000000E+00  0.0000000E+00  0.2500000E+02
  0.1962500E+01  0.0000000E+00  0.0000000E+00  0.1096906E+02  0.4431877E-02  0.0000000E+00  0.0000000E+00  0.0000000E+00  0.0000000E+00  0.0000000E+00  0.0000000E+00  0.2500000E+02
  0.1987500E+01  0.0000000E+00  0.0000000E+00  0.1102218E+02  0.4368980E-02  0.0000000E+00  0.0000000E+00  0.0000000E+00  0.0000000E+00  0.0000000E+00  0.0000000E+00  0.2500000E+02
  0.2012500E+01  0.0000000E+00  0.0000000E+00  0.1106333E+02  0.4314405E-02  0.0000000E+00  0.0000000E+00  0.0000000E+00  0.0000000E+00  0.0000000E+00  0.0000000E+00  0.2500000E+02
  0.2037500E+01  0.0000000E+00  0.0000000E+00  0.1109523E+02  0.4267206E-02  0.0000000E+00  0.0000000E+00  0.0000000E+00  0.0000000E+00  0.0000000E+00  0.0000000E+00  0.2500000E+02
  0.2062500E+01  0.0000000E+00  0.0000000E+00  0.1112136E+02  0.4226654E-02  0.0000000E+00  0.0000000E+00  0.0000000E+00  0.0000000E+00  0.0000000E+00  0.0000000E+00  0.2500000E+02
  0.2087500E+01  0.0000000E+00  0.0000000E+00  0.1114260E+02  0.4191826E-02  0.0000000E+00  0.0000000E+00  0.0000000E+00  0.0000000E+00  0.0000000E+00  0.0000000E+00  0.2500000E+02
  0.2112500E+01  0.0000000E+00  0.0000000E+00  0.1116000E+02  0.4161959E-02  0.0000000E+00  0.0000000E+00  0.0000000E+00  0.0000000E+00  0.0000000E+00  0.0000000E+00  0.2500000E+02
  0.2137500E+01  0.0000000E+00  0.0000000E+00  0.1117436E+02  0.4136371E-02  0.0000000E+00  0.0000000E+00  0.0000000E+00  0.0000000E+00  0.0000000E+00  0.0000000E+00  0.2500000E+02
  0.2162500E+01  0.0000000E+00  0.0000000E+00  0.1118628E+02  0.4114467E-02  0.0000000E+00  0.0000000E+00  0.0000000E+00  0.0000000E+00  0.0000000E+00  0.0000000E+00  0.2500000E+02
  0.2187500E+01  0.0000000E+00  0.0000000E+00  0.1119622E+02  0.4095727E-02  0.0000000E+00  0.0000000E+00  0.0000000E+00  0.0000000E+00  0.0000000E+00  0.0000000E+00  0.2500000E+02
  0.2212500E+01  0.0000000E+00  0.0000000E+00  0.1120455E+02  0.4079701E-02  0.0000000E+00  0.0000000E+00  0.0000000E+00  0.0000000E+00  0.0000000E+00  0.0000000E+00  0.2500000E+02
  0.2237500E+01  0.0000000E+00  0.0000000E+00  0.1121154E+02  0.4066001E-02  0.0000000E+00  0.0000000E+00  0.0000000E+00  0.0000000E+00  0.0000000E+00  0.0000000E+00  0.2500000E+02
  0.2262500E+01  0.0000000E+00  0.0000000E+00  0.1121742E+02  0.4054293E-02  0.0000000E+00  0.0000000E+00  0.0000000E+00  0.0000000E+00  0.0000000E+00  0.0000000E+00  0.2500000E+02
  0.2287500E+01  0.0000000E+00  0.0000000E+00  0.1122239E+02  0.4044289E-02  0.0000000E+00  0.0000000E+00  0.0000000E+00  0.0000000E+00  0.0000000E+00  0.0000000E+00  0.2500000E+02
  0.2312500E+01  0.0000000E+00  0.0000000E+00  0.1122658E+02  0.4035743E-02  0.0000000E+00  0.0000000E+00  0.0000000E+00  0.0000000E+00  0.0000000E+00  0.0000000E+00  0.2500000E+02
  0.2337500E+01  0.0000000E+00  0.0000000E+00  0.1123014E+02  0.4028445E-02  0.0000000E+00  0.0000000E+00  0.0000000E+00  0.0000000E+00  0.0000000E+00  0.0000000E+00  0.2500000E+02
  0.2362500E+01  0.0000000E+00  0.0000000E+00  0.1123315E+02  0.4022212E-02  0.0000000E+00  0.0000000E+00  0.0000000E+00  0.0000000E+00  0.0000000E+00  0.0000000E+00  0.2500000E+02
  0.2387500E+01  0.0000000E+00  0.0000000E+00  0.1123570E+02  0.4016892E-02  0.0000000E+00  0.0000000E+00  0.0000000E+00  0.0000000E+00  0.0000000E+00  0.0000000E+00  0.2500000E+02
  0.2412500E+01  0.0000000E+00  0.0000000E+00  0.1123588E+02  0.4016816E-02  0.0000000E+00  0.0000000E+00  0.0000000E+00  0.0000000E+00  0.0000000E+00  0.0000000E+00  0.2500000E+02
  0.2437500E+01  0.0000000E+00  0.0000000E+00  0.1123588E+02  0.4016822E-02  0.0000000E+00  0.0000000E+00  0.0000000E+00  0.0000000E+00  0.0000000E+00  0.0000000E+00  0.2500000E+02
  0.2462500E+01  0.0000000E+00  0.0000000E+00  0.1123587E+02  0.4016830E-02  0.0000000E+00  0.0000000E+00  0.0000000E+00  0.0000000E+00  0.0000000E+00  0.0000000E+00  0.2500000E+02
  0.2487500E+01  0.0000000E+00  0.0000000E+00  0.1123587E+02  0.4016840E-02  0.0000000E+00  0.0000000E+00  0.0000000E+00  0.0000000E+00  0.0000000E+00  0.0000000E+00  0.2500000E+02
  0.2512500E+01  0.0000000E+00  0.0000000E+00  0.1123586E+02  0.4016850E-02  0.0000000E+00  0.0000000E+00  0.0000000E+00  0.0000000E+00  0.0000000E+00  0.0000000E+00  0.2500000E+02
  0.2537500E+01  0.0000000E+00  0.0000000E+00  0.1123585E+02  0.4016861E-02  0.0000000E+00  0.0000000E+00  0.0000000E+00  0.0000000E+00  0.0000000E+00  0.0000000E+00  0.2500000E+02
  0.2600000E+01  0.0000000E+00  0.0000000E+00  0.1123582E+02  0.4016917E-02  0.0000000E+00  0.0000000E+00  0.0000000E+00  0.0000000E+00  0.0000000E+00  0.0000000E+00  0.2500000E+02
  0.2700000E+01  0.0000000E+00  0.0000000E+00  0.1123578E+02  0.4016984E-02  0.0000000E+00  0.0000000E+00  0.0000000E+00  0.0000000E+00  0.0000000E+00  0.0000000E+00  0.2500000E+02
  0.2800000E+01  0.0000000E+00  0.0000000E+00  0.1123574E+02  0.4017062E-02  0.0000000E+00  0.0000000E+00  0.0000000E+00  0.0000000E+00  0.0000000E+00  0.0000000E+00  0.2500000E+02
  0.2900000E+01  0.0000000E+00  0.0000000E+00  0.1123569E+02  0.4017149E-02  0.0000000E+00  0.0000000E+00  0.0000000E+00  0.0000000E+00  0.0000000E+00  0.0000000E+00  0.2500000E+02
  0.3000000E+01  0.0000000E+00  0.0000000E+00  0.1123564E+02  0.4017244E-02  0.0000000E+00  0.0000000E+00  0.0000000E+00  0.0000000E+00  0.0000000E+00  0.0000000E+00  0.2500000E+02
  0.3100000E+01  0.0000000E+00  0.0000000E+00  0.1123558E+02  0.4017346E-02  0.0000000E+00  0.0000000E+00  0.0000000E+00  0.0000000E+00  0.0000000E+00  0.0000000E+00  0.2500000E+02
  0.3200000E+01  0.0000000E+00  0.0000000E+00  0.1123552E+02  0.4017452E-02  0.0000000E+00  0.0000000E+00  0.0000000E+00  0.0000000E+00  0.0000000E+00  0.0000000E+00  0.2500000E+02
  0.3300000E+01  0.0000000E+00  0.0000000E+00  0.1123546E+02  0.4017563E-02  0.0000000E+00  0.0000000E+00  0.0000000E+00  0.0000000E+00  0.0000000E+00  0.0000000E+00  0.2500000E+02
  0.3400000E+01  0.0000000E+00  0.0000000E+00  0.1123540E+02  0.4017676E-02  0.0000000E+00  0.0000000E+00  0.0000000E+00  0.0000000E+00  0.0000000E+00  0.0000000E+00  0.2500000E+02
  0.3500000E+01  0.0000000E+00  0.0000000E+00  0.1123533E+02  0.4017789E-02  0.0000000E+00  0.0000000E+00  0.0000000E+00  0.0000000E+00  0.0000000E+00  0.0000000E+00  0.2500000E+02
  0.3600000E+01  0.0000000E+00  0.0000000E+00  0.1123527E+02  0.4017903E-02  0.0000000E+00  0.0000000E+00  0.0000000E+00  0.0000000E+00  0.0000000E+00  0.0000000E+00  0.2500000E+02
  0.3700000E+01  0.0000000E+00  0.0000000E+00  0.1123521E+02  0.4018015E-02  0.0000000E+00  0.0000000E+00  0.0000000E+00  0.0000000E+00  0.0000000E+00  0.0000000E+00  0.2500000E+02
  0.3800000E+01  0.0000000E+00  0.0000000E+00  0.1123514E+02  0.4018125E-02  0.0000000E+00  0.0000000E+00  0.0000000E+00  0.0000000E+00  0.0000000E+00  0.0000000E+00  0.2500000E+02
  0.3900000E+01  0.0000000E+00  0.0000000E+00  0.1123508E+02  0.4018232E-02  0.0000000E+00  0.0000000E+00  0.0000000E+00  0.0000000E+00  0.0000000E+00  0.0000000E+00  0.2500000E+02
  0.4000000E+01  0.0000000E+00  0.0000000E+00  0.1123505E+02  0.4018285E-02  0.0000000E+00  0.0000000E+00  0.0000000E+00  0.0000000E+00  0.0000000E+00  0.0000000E+00  0.2500000E+02
