title = "dataset prb"
variables = "x", "y", "z", "K_xx", "K_yy", "K_zz"
zone t = "K - initial [m/s]", i =   68, j =    1, k =    1,  f=point
  0.0000000E+00  0.0000000E+00  0.0000000E+00  0.8100000E-04  0.0000000E+00  0.0000000E+00
  0.1000000E+00  0.0000000E+00  0.0000000E+00  0.8100000E-04  0.0000000E+00  0.0000000E+00
  0.2000000E+00  0.0000000E+00  0.0000000E+00  0.8100000E-04  0.0000000E+00  0.0000000E+00
  0.3000000E+00  0.0000000E+00  0.0000000E+00  0.8100000E-04  0.0000000E+00  0.0000000E+00
  0.4000000E+00  0.0000000E+00  0.0000000E+00  0.8100000E-04  0.0000000E+00  0.0000000E+00
  0.5000000E+00  0.0000000E+00  0.0000000E+00  0.8100000E-04  0.0000000E+00  0.0000000E+00
  0.6000000E+00  0.0000000E+00  0.0000000E+00  0.8100000E-04  0.0000000E+00  0.0000000E+00
  0.7000000E+00  0.0000000E+00  0.0000000E+00  0.8100000E-04  0.0000000E+00  0.0000000E+00
  0.8000000E+00  0.0000000E+00  0.0000000E+00  0.8100000E-04  0.0000000E+00  0.0000000E+00
  0.9000000E+00  0.0000000E+00  0.0000000E+00  0.8100000E-04  0.0000000E+00  0.0000000E+00
  0.1000000E+01  0.0000000E+00  0.0000000E+00  0.8100000E-04  0.0000000E+00  0.0000000E+00
  0.1100000E+01  0.0000000E+00  0.0000000E+00  0.8100000E-04  0.0000000E+00  0.0000000E+00
  0.1200000E+01  0.0000000E+00  0.0000000E+00  0.8100000E-04  0.0000000E+00  0.0000000E+00
  0.1300000E+01  0.0000000E+00  0.0000000E+00  0.8100000E-04  0.0000000E+00  0.0000000E+00
  0.1400000E+01  0.0000000E+00  0.0000000E+00  0.8100000E-04  0.0000000E+00  0.0000000E+00
  0.1500000E+01  0.0000000E+00  0.0000000E+00  0.8100000E-04  0.0000000E+00  0.0000000E+00
  0.1600000E+01  0.0000000E+00  0.0000000E+00  0.8100000E-04  0.0000000E+00  0.0000000E+00
  0.1662500E+01  0.0000000E+00  0.0000000E+00  0.8100000E-04  0.0000000E+00  0.0000000E+00
  0.1687500E+01  0.0000000E+00  0.0000000E+00  0.8100000E-04  0.0000000E+00  0.0000000E+00
  0.1712500E+01  0.0000000E+00  0.0000000E+00  0.8100000E-04  0.0000000E+00  0.0000000E+00
  0.1737500E+01  0.0000000E+00  0.0000000E+00  0.8100000E-04  0.0000000E+00  0.0000000E+00
  0.1762500E+01  0.0000000E+00  0.0000000E+00  0.8100000E-04  0.0000000E+00  0.0000000E+00
  0.1787500E+01  0.0000000E+00  0.0000000E+00  0.8100000E-04  0.0000000E+00  0.0000000E+00
  0.1812500E+01  0.0000000E+00  0.0000000E+00  0.1200000E-02  0.0000000E+00  0.0000000E+00
  0.1837500E+01  0.0000000E+00  0.0000000E+00  0.1200000E-02  0.0000000E+00  0.0000000E+00
  0.1862500E+01  0.0000000E+00  0.0000000E+00  0.1200000E-02  0.0000000E+00  0.0000000E+00
  0.1887500E+01  0.0000000E+00  0.0000000E+00  0.1200000E-02  0.0000000E+00  0.0000000E+00
  0.1912500E+01  0.0000000E+00  0.0000000E+00  0.1200000E-02  0.0000000E+00  0.0000000E+00
  0.1937500E+01  0.0000000E+00  0.0000000E+00  0.1200000E-02  0.0000000E+00  0.0000000E+00
  0.1962500E+01  0.0000000E+00  0.0000000E+00  0.1200000E-02  0.0000000E+00  0.0000000E+00
  0.1987500E+01  0.0000000E+00  0.0000000E+00  0.1200000E-02  0.0000000E+00  0.0000000E+00
  0.2012500E+01  0.0000000E+00  0.0000000E+00  0.1200000E-02  0.0000000E+00  0.0000000E+00
  0.2037500E+01  0.0000000E+00  0.0000000E+00  0.1200000E-02  0.0000000E+00  0.0000000E+00
  0.2062500E+01  0.0000000E+00  0.0000000E+00  0.1200000E-02  0.0000000E+00  0.0000000E+00
  0.2087500E+01  0.0000000E+00  0.0000000E+00  0.1200000E-02  0.0000000E+00  0.0000000E+00
  0.2112500E+01  0.0000000E+00  0.0000000E+00  0.1200000E-02  0.0000000E+00  0.0000000E+00
  0.2137500E+01  0.0000000E+00  0.0000000E+00  0.1200000E-02  0.0000000E+00  0.0000000E+00
  0.2162500E+01  0.0000000E+00  0.0000000E+00  0.1200000E-02  0.0000000E+00  0.0000000E+00
  0.2187500E+01  0.0000000E+00  0.0000000E+00  0.1200000E-02  0.0000000E+00  0.0000000E+00
  0.2212500E+01  0.0000000E+00  0.0000000E+00  0.1200000E-02  0.0000000E+00  0.0000000E+00
  0.2237500E+01  0.0000000E+00  0.0000000E+00  0.1200000E-02  0.0000000E+00  0.0000000E+00
  0.2262500E+01  0.0000000E+00  0.0000000E+00  0.1200000E-02  0.0000000E+00  0.0000000E+00
  0.2287500E+01  0.0000000E+00  0.0000000E+00  0.1200000E-02  0.0000000E+00  0.0000000E+00
  0.2312500E+01  0.0000000E+00  0.0000000E+00  0.1200000E-02  0.0000000E+00  0.0000000E+00
  0.2337500E+01  0.0000000E+00  0.0000000E+00  0.1200000E-02  0.0000000E+00  0.0000000E+00
  0.2362500E+01  0.0000000E+00  0.0000000E+00  0.1200000E-02  0.0000000E+00  0.0000000E+00
  0.2387500E+01  0.0000000E+00  0.0000000E+00  0.1200000E-02  0.0000000E+00  0.0000000E+00
  0.2412500E+01  0.0000000E+00  0.0000000E+00  0.8100000E-04  0.0000000E+00  0.0000000E+00
  0.2437500E+01  0.0000000E+00  0.0000000E+00  0.8100000E-04  0.0000000E+00  0.0000000E+00
  0.2462500E+01  0.0000000E+00  0.0000000E+00  0.8100000E-04  0.0000000E+00  0.0000000E+00
  0.2487500E+01  0.0000000E+00  0.0000000E+00  0.8100000E-04  0.0000000E+00  0.0000000E+00
  0.2512500E+01  0.0000000E+00  0.0000000E+00  0.8100000E-04  0.0000000E+00  0.0000000E+00
  0.2537500E+01  0.0000000E+00  0.0000000E+00  0.8100000E-04  0.0000000E+00  0.0000000E+00
  0.2600000E+01  0.0000000E+00  0.0000000E+00  0.8100000E-04  0.0000000E+00  0.0000000E+00
  0.2700000E+01  0.0000000E+00  0.0000000E+00  0.8100000E-04  0.0000000E+00  0.0000000E+00
  0.2800000E+01  0.0000000E+00  0.0000000E+00  0.8100000E-04  0.0000000E+00  0.0000000E+00
  0.2900000E+01  0.0000000E+00  0.0000000E+00  0.8100000E-04  0.0000000E+00  0.0000000E+00
  0.3000000E+01  0.0000000E+00  0.0000000E+00  0.8100000E-04  0.0000000E+00  0.0000000E+00
  0.3100000E+01  0.0000000E+00  0.0000000E+00  0.8100000E-04  0.0000000E+00  0.0000000E+00
  0.3200000E+01  0.0000000E+00  0.0000000E+00  0.8100000E-04  0.0000000E+00  0.0000000E+00
  0.3300000E+01  0.0000000E+00  0.0000000E+00  0.8100000E-04  0.0000000E+00  0.0000000E+00
  0.3400000E+01  0.0000000E+00  0.0000000E+00  0.8100000E-04  0.0000000E+00  0.0000000E+00
  0.3500000E+01  0.0000000E+00  0.0000000E+00  0.8100000E-04  0.0000000E+00  0.0000000E+00
  0.3600000E+01  0.0000000E+00  0.0000000E+00  0.8100000E-04  0.0000000E+00  0.0000000E+00
  0.3700000E+01  0.0000000E+00  0.0000000E+00  0.8100000E-04  0.0000000E+00  0.0000000E+00
  0.3800000E+01  0.0000000E+00  0.0000000E+00  0.8100000E-04  0.0000000E+00  0.0000000E+00
  0.3900000E+01  0.0000000E+00  0.0000000E+00  0.8100000E-04  0.0000000E+00  0.0000000E+00
  0.4000000E+01  0.0000000E+00  0.0000000E+00  0.8100000E-04  0.0000000E+00  0.0000000E+00
