title = "dataset wall1"
variables = "x", "y", "z","h+1","cl-1","co3-2","so4-2","hs-1","ca+2","fe+2","fe+3","cro4-2","cr(oh)2+","tce","cis-1,2-dce","vc","ethane","h2(aq)"
zone t = "T_j, T =  2.400E+02 days", i =   68, j =    1, k =    1,  f=point
  0.0000000E+00  0.0000000E+00  0.0000000E+00  0.3006666E-02  0.4040000E-02  0.1950000E-02  0.1440000E-02  0.5290000E-19  0.5320000E-03  0.2530000E-12  0.4720000E-11  0.9840000E-04  0.1486687E-06  0.1980000E-05  0.1370000E-05  0.1730000E-06  0.1000000E-09  0.1980000E-30
  0.1000000E+00  0.0000000E+00  0.0000000E+00  0.3006666E-02  0.4040000E-02  0.1950000E-02  0.1440000E-02  0.5290000E-19  0.5320000E-03  0.2530000E-12  0.4720000E-11  0.9840000E-04  0.1486510E-06  0.1980000E-05  0.1370000E-05  0.1730000E-06  0.1000000E-09  0.1980000E-30
  0.2000000E+00  0.0000000E+00  0.0000000E+00  0.3006666E-02  0.4040000E-02  0.1950000E-02  0.1440000E-02  0.5290000E-19  0.5320000E-03  0.2530000E-12  0.4720000E-11  0.9840000E-04  0.1486510E-06  0.1980000E-05  0.1370000E-05  0.1730000E-06  0.1000000E-09  0.1980000E-30
  0.3000000E+00  0.0000000E+00  0.0000000E+00  0.3006666E-02  0.4040000E-02  0.1950000E-02  0.1440000E-02  0.5290000E-19  0.5320000E-03  0.2530000E-12  0.4720000E-11  0.9840000E-04  0.1486510E-06  0.1980000E-05  0.1370000E-05  0.1730000E-06  0.1000000E-09  0.1980000E-30
  0.4000000E+00  0.0000000E+00  0.0000000E+00  0.3006666E-02  0.4040000E-02  0.1950000E-02  0.1440000E-02  0.5290000E-19  0.5320000E-03  0.2530000E-12  0.4720000E-11  0.9840000E-04  0.1486510E-06  0.1980000E-05  0.1370000E-05  0.1730000E-06  0.1000000E-09  0.1980000E-30
  0.5000000E+00  0.0000000E+00  0.0000000E+00  0.3006666E-02  0.4040000E-02  0.1950000E-02  0.1440000E-02  0.5290000E-19  0.5320000E-03  0.2530000E-12  0.4720000E-11  0.9840000E-04  0.1486510E-06  0.1980000E-05  0.1370000E-05  0.1730000E-06  0.1000000E-09  0.1980000E-30
  0.6000000E+00  0.0000000E+00  0.0000000E+00  0.3006666E-02  0.4040000E-02  0.1950000E-02  0.1440000E-02  0.5290000E-19  0.5320000E-03  0.2530000E-12  0.4720000E-11  0.9840000E-04  0.1486510E-06  0.1980000E-05  0.1370000E-05  0.1730000E-06  0.1000000E-09  0.1980000E-30
  0.7000000E+00  0.0000000E+00  0.0000000E+00  0.3006666E-02  0.4040000E-02  0.1950000E-02  0.1440000E-02  0.5290000E-19  0.5320000E-03  0.2530000E-12  0.4720000E-11  0.9840000E-04  0.1486510E-06  0.1980000E-05  0.1370000E-05  0.1730000E-06  0.1000000E-09  0.1980000E-30
  0.8000000E+00  0.0000000E+00  0.0000000E+00  0.3006666E-02  0.4040000E-02  0.1950000E-02  0.1440000E-02  0.5290000E-19  0.5320000E-03  0.2530000E-12  0.4720000E-11  0.9840000E-04  0.1486510E-06  0.1980000E-05  0.1370000E-05  0.1730000E-06  0.1000000E-09  0.1980000E-30
  0.9000000E+00  0.0000000E+00  0.0000000E+00  0.3006666E-02  0.4040000E-02  0.1950000E-02  0.1440000E-02  0.5290000E-19  0.5320000E-03  0.2530000E-12  0.4720000E-11  0.9840000E-04  0.1486510E-06  0.1980000E-05  0.1370000E-05  0.1730000E-06  0.1000000E-09  0.1980000E-30
  0.1000000E+01  0.0000000E+00  0.0000000E+00  0.3006666E-02  0.4040000E-02  0.1950000E-02  0.1440000E-02  0.5290000E-19  0.5320000E-03  0.2530000E-12  0.4720000E-11  0.9840000E-04  0.1486510E-06  0.1980000E-05  0.1370000E-05  0.1730000E-06  0.1000000E-09  0.1980000E-30
  0.1100000E+01  0.0000000E+00  0.0000000E+00  0.3006666E-02  0.4040000E-02  0.1950000E-02  0.1440000E-02  0.5290000E-19  0.5320000E-03  0.2530000E-12  0.4720000E-11  0.9840000E-04  0.1486510E-06  0.1980000E-05  0.1370000E-05  0.1730000E-06  0.1000000E-09  0.1980000E-30
  0.1200000E+01  0.0000000E+00  0.0000000E+00  0.3006666E-02  0.4040000E-02  0.1950000E-02  0.1440000E-02  0.5290000E-19  0.5320000E-03  0.2530000E-12  0.4720000E-11  0.9840000E-04  0.1486510E-06  0.1980000E-05  0.1370000E-05  0.1730000E-06  0.1000000E-09  0.1980000E-30
  0.1300000E+01  0.0000000E+00  0.0000000E+00  0.3006666E-02  0.4040000E-02  0.1950000E-02  0.1440000E-02  0.5290000E-19  0.5320000E-03  0.2530000E-12  0.4720000E-11  0.9840000E-04  0.1486510E-06  0.1980000E-05  0.1370000E-05  0.1730000E-06  0.1000000E-09  0.1980000E-30
  0.1400000E+01  0.0000000E+00  0.0000000E+00  0.3006666E-02  0.4040000E-02  0.1950000E-02  0.1440000E-02  0.5290000E-19  0.5320000E-03  0.2530000E-12  0.4720000E-11  0.9840000E-04  0.1486510E-06  0.1980000E-05  0.1370000E-05  0.1730000E-06  0.1000000E-09  0.1980000E-30
  0.1500000E+01  0.0000000E+00  0.0000000E+00  0.3006666E-02  0.4040000E-02  0.1950000E-02  0.1440000E-02  0.5290000E-19  0.5320000E-03  0.2530000E-12  0.4720000E-11  0.9840000E-04  0.1486510E-06  0.1980000E-05  0.1370000E-05  0.1730000E-06  0.1000000E-09  0.1980000E-30
  0.1600000E+01  0.0000000E+00  0.0000000E+00  0.3006666E-02  0.4040000E-02  0.1950000E-02  0.1440000E-02  0.5290000E-19  0.5320000E-03  0.2530000E-12  0.4720000E-11  0.9840000E-04  0.1486510E-06  0.1980000E-05  0.1370000E-05  0.1730000E-06  0.1000000E-09  0.1980000E-30
  0.1662500E+01  0.0000000E+00  0.0000000E+00  0.3006666E-02  0.4040000E-02  0.1950000E-02  0.1440000E-02  0.5290000E-19  0.5320000E-03  0.2530000E-12  0.4720000E-11  0.9840000E-04  0.1486510E-06  0.1980000E-05  0.1370000E-05  0.1730000E-06  0.1000000E-09  0.1980000E-30
  0.1687500E+01  0.0000000E+00  0.0000000E+00  0.3006666E-02  0.4040000E-02  0.1950000E-02  0.1440000E-02  0.5290000E-19  0.5320000E-03  0.2530000E-12  0.4720000E-11  0.9840000E-04  0.1486510E-06  0.1980000E-05  0.1370000E-05  0.1730000E-06  0.1000000E-09  0.1980000E-30
  0.1712500E+01  0.0000000E+00  0.0000000E+00  0.3006666E-02  0.4040000E-02  0.1950000E-02  0.1440000E-02  0.5290000E-19  0.5320000E-03  0.2530000E-12  0.4720000E-11  0.9840000E-04  0.1486510E-06  0.1980000E-05  0.1370000E-05  0.1730000E-06  0.1000000E-09  0.1980000E-30
  0.1737500E+01  0.0000000E+00  0.0000000E+00  0.3006666E-02  0.4040000E-02  0.1950000E-02  0.1440000E-02  0.5290000E-19  0.5320000E-03  0.2530000E-12  0.4720000E-11  0.9840000E-04  0.1486510E-06  0.1980000E-05  0.1370000E-05  0.1730000E-06  0.1000000E-09  0.1980000E-30
  0.1762500E+01  0.0000000E+00  0.0000000E+00  0.3006666E-02  0.4040000E-02  0.1950000E-02  0.1440000E-02  0.5290000E-19  0.5320000E-03  0.2530000E-12  0.4720000E-11  0.9840000E-04  0.1486510E-06  0.1980000E-05  0.1370000E-05  0.1730000E-06  0.1000000E-09  0.1980000E-30
  0.1787500E+01  0.0000000E+00  0.0000000E+00  0.3006666E-02  0.4040000E-02  0.1950000E-02  0.1440000E-02  0.5290000E-19  0.5320000E-03  0.2530000E-12  0.4720000E-11  0.9840000E-04  0.1486510E-06  0.1980000E-05  0.1370000E-05  0.1730000E-06  0.1000000E-09  0.1980000E-30
  0.1812500E+01  0.0000000E+00  0.0000000E+00  0.8726428E-03  0.4042057E-02  0.1058249E-02  0.1229331E-02  0.8968800E-08  0.3012909E-03  0.9780461E-04  0.9812450E-07  0.3718559E-09  0.1135023E-06  0.1315573E-05  0.1293448E-05  0.2618440E-06  0.6522344E-06  0.1241206E-03
  0.1837500E+01  0.0000000E+00  0.0000000E+00  0.2422125E-03  0.4043552E-02  0.6593370E-03  0.1049482E-02  0.1009648E-07  0.1054904E-03  0.3061612E-04  0.2571455E-06  0.3328082E-13  0.1870340E-07  0.8752178E-06  0.1184579E-05  0.3062677E-06  0.1157036E-05  0.2320195E-03
  0.1862500E+01  0.0000000E+00  0.0000000E+00 -0.9926951E-04  0.4044656E-02  0.5594178E-03  0.8959456E-03  0.2047626E-07  0.4298062E-04  0.1096431E-04  0.2571540E-06  0.9341886E-15  0.2636735E-07  0.5833579E-06  0.1063136E-05  0.3207740E-06  0.1555832E-05  0.3309753E-03
  0.1887500E+01  0.0000000E+00  0.0000000E+00 -0.3633140E-03  0.4045485E-02  0.5374981E-03  0.7648711E-03  0.3228944E-07  0.2654403E-04  0.6845264E-05  0.2571837E-06  0.2273132E-15  0.3516704E-07  0.3899031E-06  0.9408589E-06  0.3160112E-06  0.1876327E-05  0.4250885E-03
  0.1912500E+01  0.0000000E+00  0.0000000E+00 -0.5839383E-03  0.4046120E-02  0.5330040E-03  0.6529727E-03  0.4272775E-07  0.2205036E-04  0.5576540E-05  0.2572524E-06  0.1168990E-15  0.4351610E-07  0.2616529E-06  0.8243891E-06  0.2995669E-06  0.2137491E-05  0.5159851E-03
  0.1937500E+01  0.0000000E+00  0.0000000E+00 -0.7734020E-03  0.4046612E-02  0.5314749E-03  0.5574449E-03  0.5124153E-07  0.2052176E-04  0.5026653E-05  0.2573908E-06  0.7988132E-16  0.5107480E-07  0.1765998E-06  0.7171602E-06  0.2766979E-06  0.2352642E-05  0.6046335E-03
  0.1962500E+01  0.0000000E+00  0.0000000E+00 -0.9355151E-03  0.4047000E-02  0.5307569E-03  0.4758927E-03  0.5755496E-07  0.1980409E-04  0.4723831E-05  0.2578508E-06  0.6213009E-16  0.5772516E-07  0.1201533E-06  0.6206285E-06  0.2509397E-06  0.2531378E-05  0.6915582E-03
  0.1987500E+01  0.0000000E+00  0.0000000E+00 -0.1074043E-02  0.4047310E-02  0.5303197E-03  0.4062715E-03  0.6188822E-07  0.1936724E-04  0.4512810E-05  0.2631046E-06  0.5177508E-16  0.6350313E-07  0.8263897E-07  0.5350642E-06  0.2245886E-06  0.2680808E-05  0.7771237E-03
  0.2012500E+01  0.0000000E+00  0.0000000E+00 -0.1192637E-02  0.4047561E-02  0.5300131E-03  0.3468359E-03  0.6453345E-07  0.1906085E-04  0.4340972E-05  0.3676778E-06  0.4496332E-16  0.6848738E-07  0.5764218E-07  0.4600567E-06  0.1990686E-06  0.2806332E-05  0.8615746E-03
  0.2037500E+01  0.0000000E+00  0.0000000E+00 -0.1300263E-02  0.4047765E-02  0.5297843E-03  0.2960956E-03  0.6570312E-07  0.1883212E-04  0.4186647E-05  0.2586333E-05  0.4010633E-16  0.7268614E-07  0.4091196E-07  0.3948331E-06  0.1752028E-06  0.2912152E-05  0.9450680E-03
  0.2062500E+01  0.0000000E+00  0.0000000E+00 -0.1387052E-02  0.4047934E-02  0.5296048E-03  0.2527786E-03  0.6588998E-07  0.1865237E-04  0.4048933E-05  0.2784924E-05  0.3644645E-16  0.7636074E-07  0.2963570E-07  0.3384561E-06  0.1534106E-06  0.3001597E-05  0.1027698E-02
  0.2087500E+01  0.0000000E+00  0.0000000E+00 -0.1461040E-02  0.4048073E-02  0.5294615E-03  0.2157988E-03  0.6525773E-07  0.1850856E-04  0.3922668E-05  0.2923896E-05  0.3357180E-16  0.7951221E-07  0.2195805E-07  0.2899427E-06  0.1338477E-06  0.3077351E-05  0.1109515E-02
  0.2112500E+01  0.0000000E+00  0.0000000E+00 -0.1524188E-02  0.4048190E-02  0.5293457E-03  0.1842291E-03  0.6403269E-07  0.1839187E-04  0.3806817E-05  0.3042327E-05  0.3124126E-16  0.8221101E-07  0.1666005E-07  0.2483348E-06  0.1165033E-06  0.3141602E-05  0.1190536E-02
  0.2137500E+01  0.0000000E+00  0.0000000E+00 -0.1578086E-02  0.4048287E-02  0.5292514E-03  0.1572780E-03  0.6240674E-07  0.1829615E-04  0.3700856E-05  0.3143687E-05  0.2930434E-16  0.8452055E-07  0.1294395E-07  0.2127370E-06  0.1012674E-06  0.3196152E-05  0.1270758E-02
  0.2162500E+01  0.0000000E+00  0.0000000E+00 -0.1624087E-02  0.4048369E-02  0.5291743E-03  0.1342699E-03  0.6053678E-07  0.1821698E-04  0.3604308E-05  0.3230400E-05  0.2766222E-16  0.8649598E-07  0.1028878E-07  0.1823359E-06  0.8797582E-07  0.3242499E-05  0.1350165E-02
  0.2187500E+01  0.0000000E+00  0.0000000E+00 -0.1663347E-02  0.4048439E-02  0.5291111E-03  0.1146278E-03  0.5854717E-07  0.1815108E-04  0.3516627E-05  0.3304552E-05  0.2624722E-16  0.8818498E-07  0.8353844E-08  0.1564061E-06  0.7643998E-07  0.3281900E-05  0.1428732E-02
  0.2212500E+01  0.0000000E+00  0.0000000E+00 -0.1696853E-02  0.4048497E-02  0.5290595E-03  0.9785931E-04  0.5653328E-07  0.1809596E-04  0.3437190E-05  0.3367942E-05  0.2501139E-16  0.8962865E-07  0.6915200E-08  0.1343097E-06  0.6646563E-07  0.3315409E-05  0.1506431E-02
  0.2237500E+01  0.0000000E+00  0.0000000E+00 -0.1725448E-02  0.4048546E-02  0.5290176E-03  0.8354405E-04  0.5456538E-07  0.1804967E-04  0.3365324E-05  0.3422118E-05  0.2391976E-16  0.9086233E-07  0.5824302E-08  0.1154909E-06  0.5786446E-07  0.3343920E-05  0.1583232E-02
  0.2262500E+01  0.0000000E+00  0.0000000E+00 -0.1749849E-02  0.4048588E-02  0.5289840E-03  0.7132310E-04  0.5269281E-07  0.1801067E-04  0.3300339E-05  0.3468408E-05  0.2294619E-16  0.9191636E-07  0.4981409E-08  0.9946869E-07  0.5046071E-07  0.3368189E-05  0.1659104E-02
  0.2287500E+01  0.0000000E+00  0.0000000E+00 -0.1770670E-02  0.4048624E-02  0.5289576E-03  0.6089006E-04  0.5094795E-07  0.1797772E-04  0.3241551E-05  0.3507953E-05  0.2207070E-16  0.9281675E-07  0.4318578E-08  0.8582885E-07  0.4409441E-07  0.3388858E-05  0.1734023E-02
  0.2312500E+01  0.0000000E+00  0.0000000E+00 -0.1788435E-02  0.4048654E-02  0.5289373E-03  0.5198337E-04  0.4934979E-07  0.1794981E-04  0.3188307E-05  0.3541730E-05  0.2127778E-16  0.9358577E-07  0.3788796E-08  0.7421608E-07  0.3862258E-07  0.3406472E-05  0.1807963E-02
  0.2337500E+01  0.0000000E+00  0.0000000E+00 -0.1803590E-02  0.4048680E-02  0.5289225E-03  0.4437972E-04  0.4790713E-07  0.1792613E-04  0.3139995E-05  0.3570576E-05  0.2055514E-16  0.9424249E-07  0.3358996E-08  0.6432634E-07  0.3391910E-07  0.3421495E-05  0.1880905E-02
  0.2362500E+01  0.0000000E+00  0.0000000E+00 -0.1816518E-02  0.4048702E-02  0.5289126E-03  0.3788847E-04  0.4662125E-07  0.1790599E-04  0.3096055E-05  0.3595206E-05  0.1989293E-16  0.9480322E-07  0.3005539E-08  0.5590000E-07  0.2987386E-07  0.3434320E-05  0.1952831E-02
  0.2387500E+01  0.0000000E+00  0.0000000E+00 -0.1827544E-02  0.4048721E-02  0.5289071E-03  0.3234689E-04  0.4548812E-07  0.1788883E-04  0.3055977E-05  0.3616234E-05  0.1928313E-16  0.9528194E-07  0.2711251E-08  0.4871574E-07  0.2639146E-07  0.3445281E-05  0.2023729E-02
  0.2412500E+01  0.0000000E+00  0.0000000E+00 -0.1825207E-02  0.4048721E-02  0.5289131E-03  0.3234689E-04  0.4548767E-07  0.1788520E-04  0.1894256E-05  0.3618175E-05  0.1928299E-16  0.9531799E-07  0.2711251E-08  0.4871574E-07  0.2639146E-07  0.3445281E-05  0.2023731E-02
  0.2437500E+01  0.0000000E+00  0.0000000E+00 -0.1825156E-02  0.4048721E-02  0.5289228E-03  0.3234689E-04  0.4548718E-07  0.1788440E-04  0.1878830E-05  0.3618206E-05  0.1928284E-16  0.9531781E-07  0.2711251E-08  0.4871574E-07  0.2639146E-07  0.3445281E-05  0.2023733E-02
  0.2462500E+01  0.0000000E+00  0.0000000E+00 -0.1825132E-02  0.4048721E-02  0.5289338E-03  0.3234689E-04  0.4548665E-07  0.1788406E-04  0.1878612E-05  0.3618167E-05  0.1928268E-16  0.9531688E-07  0.2711251E-08  0.4871574E-07  0.2639146E-07  0.3445281E-05  0.2023735E-02
  0.2487500E+01  0.0000000E+00  0.0000000E+00 -0.1825107E-02  0.4048721E-02  0.5289458E-03  0.3234689E-04  0.4548607E-07  0.1788378E-04  0.1878594E-05  0.3618122E-05  0.1928251E-16  0.9531587E-07  0.2711251E-08  0.4871574E-07  0.2639146E-07  0.3445281E-05  0.2023737E-02
  0.2512500E+01  0.0000000E+00  0.0000000E+00 -0.1825081E-02  0.4048721E-02  0.5289587E-03  0.3234689E-04  0.4548546E-07  0.1788350E-04  0.1878578E-05  0.3618075E-05  0.1928233E-16  0.9531478E-07  0.2711251E-08  0.4871574E-07  0.2639146E-07  0.3445281E-05  0.2023739E-02
  0.2537500E+01  0.0000000E+00  0.0000000E+00 -0.1825053E-02  0.4048721E-02  0.5289726E-03  0.3234689E-04  0.4548480E-07  0.1788321E-04  0.1878561E-05  0.3618024E-05  0.1928214E-16  0.9531362E-07  0.2711251E-08  0.4871574E-07  0.2639146E-07  0.3445281E-05  0.2023741E-02
  0.2600000E+01  0.0000000E+00  0.0000000E+00 -0.1824909E-02  0.4048721E-02  0.5290424E-03  0.3234689E-04  0.4548147E-07  0.1788169E-04  0.1878473E-05  0.3617766E-05  0.1928121E-16  0.9530774E-07  0.2711251E-08  0.4871574E-07  0.2639146E-07  0.3445281E-05  0.2023749E-02
  0.2700000E+01  0.0000000E+00  0.0000000E+00 -0.1824736E-02  0.4048721E-02  0.5291263E-03  0.3234689E-04  0.4547746E-07  0.1787987E-04  0.1878368E-05  0.3617456E-05  0.1928012E-16  0.9530066E-07  0.2711251E-08  0.4871574E-07  0.2639146E-07  0.3445281E-05  0.2023756E-02
  0.2800000E+01  0.0000000E+00  0.0000000E+00 -0.1824537E-02  0.4048721E-02  0.5292233E-03  0.3234689E-04  0.4547284E-07  0.1787775E-04  0.1878246E-05  0.3617098E-05  0.1927888E-16  0.9529249E-07  0.2711251E-08  0.4871574E-07  0.2639146E-07  0.3445281E-05  0.2023762E-02
  0.2900000E+01  0.0000000E+00  0.0000000E+00 -0.1824313E-02  0.4048721E-02  0.5293321E-03  0.3234689E-04  0.4546770E-07  0.1787537E-04  0.1878110E-05  0.3616697E-05  0.1927750E-16  0.9528333E-07  0.2711251E-08  0.4871574E-07  0.2639146E-07  0.3445281E-05  0.2023768E-02
  0.3000000E+01  0.0000000E+00  0.0000000E+00 -0.1824069E-02  0.4048721E-02  0.5294509E-03  0.3234689E-04  0.4546221E-07  0.1787277E-04  0.1877961E-05  0.3616258E-05  0.1927606E-16  0.9527332E-07  0.2711251E-08  0.4871574E-07  0.2639146E-07  0.3445282E-05  0.2023774E-02
  0.3100000E+01  0.0000000E+00  0.0000000E+00 -0.1823807E-02  0.4048721E-02  0.5295780E-03  0.3234689E-04  0.4545664E-07  0.1786999E-04  0.1877802E-05  0.3615789E-05  0.1927479E-16  0.9526261E-07  0.2711251E-08  0.4871574E-07  0.2639146E-07  0.3445282E-05  0.2023779E-02
  0.3200000E+01  0.0000000E+00  0.0000000E+00 -0.1823532E-02  0.4048721E-02  0.5297115E-03  0.3234689E-04  0.4545152E-07  0.1786706E-04  0.1877635E-05  0.3615296E-05  0.1927501E-16  0.9525136E-07  0.2711251E-08  0.4871574E-07  0.2639146E-07  0.3445282E-05  0.2023784E-02
  0.3300000E+01  0.0000000E+00  0.0000000E+00 -0.1823248E-02  0.4048721E-02  0.5298497E-03  0.3234689E-04  0.4544773E-07  0.1786402E-04  0.1877462E-05  0.3614787E-05  0.1928288E-16  0.9523972E-07  0.2711251E-08  0.4871574E-07  0.2639146E-07  0.3445282E-05  0.2023789E-02
  0.3400000E+01  0.0000000E+00  0.0000000E+00 -0.1822958E-02  0.4048721E-02  0.5299907E-03  0.3234689E-04  0.4544673E-07  0.1786092E-04  0.1877285E-05  0.3614266E-05  0.1932450E-16  0.9522784E-07  0.2711251E-08  0.4871574E-07  0.2639146E-07  0.3445283E-05  0.2023794E-02
  0.3500000E+01  0.0000000E+00  0.0000000E+00 -0.1822665E-02  0.4048721E-02  0.5301328E-03  0.3234689E-04  0.4545083E-07  0.1785780E-04  0.1877107E-05  0.3613742E-05  0.1950011E-16  0.9521586E-07  0.2711251E-08  0.4871574E-07  0.2639146E-07  0.3445284E-05  0.2023799E-02
  0.3600000E+01  0.0000000E+00  0.0000000E+00 -0.1822373E-02  0.4048721E-02  0.5302747E-03  0.3234689E-04  0.4546327E-07  0.1785467E-04  0.1876929E-05  0.3613218E-05  0.2016212E-16  0.9520391E-07  0.2711251E-08  0.4871574E-07  0.2639146E-07  0.3445286E-05  0.2023804E-02
  0.3700000E+01  0.0000000E+00  0.0000000E+00 -0.1822085E-02  0.4048721E-02  0.5304151E-03  0.3234689E-04  0.4548898E-07  0.1785158E-04  0.1876753E-05  0.3612700E-05  0.2245573E-16  0.9519209E-07  0.2711251E-08  0.4871574E-07  0.2639146E-07  0.3445288E-05  0.2023808E-02
  0.3800000E+01  0.0000000E+00  0.0000000E+00 -0.1821801E-02  0.4048721E-02  0.5305528E-03  0.3234689E-04  0.4553465E-07  0.1784855E-04  0.1876581E-05  0.3612192E-05  0.2984845E-16  0.9518048E-07  0.2711251E-08  0.4871574E-07  0.2639146E-07  0.3445292E-05  0.2023813E-02
  0.3900000E+01  0.0000000E+00  0.0000000E+00 -0.1821525E-02  0.4048721E-02  0.5306871E-03  0.3234689E-04  0.4561090E-07  0.1784560E-04  0.1876412E-05  0.3611696E-05  0.5218905E-16  0.9516916E-07  0.2711251E-08  0.4871574E-07  0.2639146E-07  0.3445298E-05  0.2023818E-02
  0.4000000E+01  0.0000000E+00  0.0000000E+00 -0.1821388E-02  0.4048721E-02  0.5307533E-03  0.3234689E-04  0.4565854E-07  0.1784414E-04  0.1876329E-05  0.3611452E-05  0.6890964E-16  0.9516358E-07  0.2711251E-08  0.4871574E-07  0.2639146E-07  0.3445302E-05  0.2023821E-02
