title = "dataset wall1"
variables = "x", "y", "z","fe_0_h2o_3_1","fe_0_cr_1","fe_0_tce_1","fe_0_cdce_1","fe_0_vc_1","fe_0_so4_2_1","calcite_1","siderite(d)_1","fe(oh)2(s)_1","cr(oh)3(a)_1","mackinawite_1","ferrihydrite_1"
zone t = "Diss.-prec. rates, T =  2.400E+02 days", i =   68, j =    1, k =    1,  f=point
  0.0000000E+00  0.0000000E+00  0.0000000E+00  0.0000000E+00  0.0000000E+00  0.0000000E+00  0.0000000E+00  0.0000000E+00  0.0000000E+00  0.0000000E+00  0.0000000E+00  0.0000000E+00  0.1192632E-08  0.0000000E+00  0.0000000E+00
  0.1000000E+00  0.0000000E+00  0.0000000E+00  0.0000000E+00  0.0000000E+00  0.0000000E+00  0.0000000E+00  0.0000000E+00  0.0000000E+00  0.0000000E+00  0.0000000E+00  0.0000000E+00  0.3162813E-11  0.0000000E+00  0.0000000E+00
  0.2000000E+00  0.0000000E+00  0.0000000E+00  0.0000000E+00  0.0000000E+00  0.0000000E+00  0.0000000E+00  0.0000000E+00  0.0000000E+00  0.0000000E+00  0.0000000E+00  0.0000000E+00  0.8390392E-14  0.0000000E+00  0.0000000E+00
  0.3000000E+00  0.0000000E+00  0.0000000E+00  0.0000000E+00  0.0000000E+00  0.0000000E+00  0.0000000E+00  0.0000000E+00  0.0000000E+00  0.0000000E+00  0.0000000E+00  0.0000000E+00  0.2225983E-16  0.0000000E+00  0.0000000E+00
  0.4000000E+00  0.0000000E+00  0.0000000E+00  0.0000000E+00  0.0000000E+00  0.0000000E+00  0.0000000E+00  0.0000000E+00  0.0000000E+00  0.0000000E+00  0.0000000E+00  0.0000000E+00  0.8881727E-20  0.0000000E+00  0.0000000E+00
  0.5000000E+00  0.0000000E+00  0.0000000E+00  0.0000000E+00  0.0000000E+00  0.0000000E+00  0.0000000E+00  0.0000000E+00  0.0000000E+00  0.0000000E+00  0.0000000E+00  0.0000000E+00  0.5551080E-19  0.0000000E+00  0.0000000E+00
  0.6000000E+00  0.0000000E+00  0.0000000E+00  0.0000000E+00  0.0000000E+00  0.0000000E+00  0.0000000E+00  0.0000000E+00  0.0000000E+00  0.0000000E+00  0.0000000E+00  0.0000000E+00  0.1998389E-19  0.0000000E+00  0.0000000E+00
  0.7000000E+00  0.0000000E+00  0.0000000E+00  0.0000000E+00  0.0000000E+00  0.0000000E+00  0.0000000E+00  0.0000000E+00  0.0000000E+00  0.0000000E+00  0.0000000E+00  0.0000000E+00  0.1998389E-19  0.0000000E+00  0.0000000E+00
  0.8000000E+00  0.0000000E+00  0.0000000E+00  0.0000000E+00  0.0000000E+00  0.0000000E+00  0.0000000E+00  0.0000000E+00  0.0000000E+00  0.0000000E+00  0.0000000E+00  0.0000000E+00  0.1998389E-19  0.0000000E+00  0.0000000E+00
  0.9000000E+00  0.0000000E+00  0.0000000E+00  0.0000000E+00  0.0000000E+00  0.0000000E+00  0.0000000E+00  0.0000000E+00  0.0000000E+00  0.0000000E+00  0.0000000E+00  0.0000000E+00  0.4440864E-20  0.0000000E+00  0.0000000E+00
  0.1000000E+01  0.0000000E+00  0.0000000E+00  0.0000000E+00  0.0000000E+00  0.0000000E+00  0.0000000E+00  0.0000000E+00  0.0000000E+00  0.0000000E+00  0.0000000E+00  0.0000000E+00  0.4440864E-20  0.0000000E+00  0.0000000E+00
  0.1100000E+01  0.0000000E+00  0.0000000E+00  0.0000000E+00  0.0000000E+00  0.0000000E+00  0.0000000E+00  0.0000000E+00  0.0000000E+00  0.0000000E+00  0.0000000E+00  0.0000000E+00  0.4440864E-20  0.0000000E+00  0.0000000E+00
  0.1200000E+01  0.0000000E+00  0.0000000E+00  0.0000000E+00  0.0000000E+00  0.0000000E+00  0.0000000E+00  0.0000000E+00  0.0000000E+00  0.0000000E+00  0.0000000E+00  0.0000000E+00 -0.4107799E-19  0.0000000E+00  0.0000000E+00
  0.1300000E+01  0.0000000E+00  0.0000000E+00  0.0000000E+00  0.0000000E+00  0.0000000E+00  0.0000000E+00  0.0000000E+00  0.0000000E+00  0.0000000E+00  0.0000000E+00  0.0000000E+00  0.3996777E-19  0.0000000E+00  0.0000000E+00
  0.1400000E+01  0.0000000E+00  0.0000000E+00  0.0000000E+00  0.0000000E+00  0.0000000E+00  0.0000000E+00  0.0000000E+00  0.0000000E+00  0.0000000E+00  0.0000000E+00  0.0000000E+00  0.4440864E-20  0.0000000E+00  0.0000000E+00
  0.1500000E+01  0.0000000E+00  0.0000000E+00  0.0000000E+00  0.0000000E+00  0.0000000E+00  0.0000000E+00  0.0000000E+00  0.0000000E+00  0.0000000E+00  0.0000000E+00  0.0000000E+00  0.4440864E-20  0.0000000E+00  0.0000000E+00
  0.1600000E+01  0.0000000E+00  0.0000000E+00  0.0000000E+00  0.0000000E+00  0.0000000E+00  0.0000000E+00  0.0000000E+00  0.0000000E+00  0.0000000E+00  0.0000000E+00  0.0000000E+00  0.8437641E-19  0.0000000E+00  0.0000000E+00
  0.1662500E+01  0.0000000E+00  0.0000000E+00  0.0000000E+00  0.0000000E+00  0.0000000E+00  0.0000000E+00  0.0000000E+00  0.0000000E+00  0.0000000E+00  0.0000000E+00  0.0000000E+00  0.4773928E-18  0.0000000E+00  0.0000000E+00
  0.1687500E+01  0.0000000E+00  0.0000000E+00  0.0000000E+00  0.0000000E+00  0.0000000E+00  0.0000000E+00  0.0000000E+00  0.0000000E+00  0.0000000E+00  0.0000000E+00  0.0000000E+00  0.6394844E-18  0.0000000E+00  0.0000000E+00
  0.1712500E+01  0.0000000E+00  0.0000000E+00  0.0000000E+00  0.0000000E+00  0.0000000E+00  0.0000000E+00  0.0000000E+00  0.0000000E+00  0.0000000E+00  0.0000000E+00  0.0000000E+00 -0.6217209E-18  0.0000000E+00  0.0000000E+00
  0.1737500E+01  0.0000000E+00  0.0000000E+00  0.0000000E+00  0.0000000E+00  0.0000000E+00  0.0000000E+00  0.0000000E+00  0.0000000E+00  0.0000000E+00  0.0000000E+00  0.0000000E+00 -0.1665324E-19  0.0000000E+00  0.0000000E+00
  0.1762500E+01  0.0000000E+00  0.0000000E+00  0.0000000E+00  0.0000000E+00  0.0000000E+00  0.0000000E+00  0.0000000E+00  0.0000000E+00  0.0000000E+00  0.0000000E+00  0.0000000E+00 -0.1665324E-19  0.0000000E+00  0.0000000E+00
  0.1787500E+01  0.0000000E+00  0.0000000E+00  0.0000000E+00  0.0000000E+00  0.0000000E+00  0.0000000E+00  0.0000000E+00  0.0000000E+00  0.0000000E+00  0.0000000E+00  0.0000000E+00  0.3352852E-18  0.0000000E+00  0.0000000E+00
  0.1812500E+01  0.0000000E+00  0.0000000E+00 -0.8886207E-04 -0.7045524E-04 -0.1572685E-05 -0.1648997E-06 -0.2025727E-06 -0.6033658E-03  0.1651899E-03  0.4733125E-03  0.0000000E+00  0.7048041E-04  0.1508350E-03  0.7038499E-04
  0.1837500E+01  0.0000000E+00  0.0000000E+00 -0.7724951E-04 -0.2662292E-09 -0.1042312E-05 -0.1509137E-06 -0.2382117E-06 -0.5150940E-03  0.1401952E-03  0.1454296E-03  0.3676862E-03  0.6814333E-07  0.1287727E-03 -0.1135942E-06
  0.1862500E+01  0.0000000E+00  0.0000000E+00 -0.7084704E-04 -0.2316055E-13 -0.6908264E-06 -0.1353126E-06 -0.2498518E-06 -0.4397363E-03  0.4475769E-04  0.2678516E-04  0.3890230E-03 -0.5487441E-08  0.1099266E-03  0.0000000E+00
  0.1887500E+01  0.0000000E+00  0.0000000E+00 -0.6738028E-04 -0.5061310E-15 -0.4579036E-06 -0.1196047E-06 -0.2460299E-06 -0.3754033E-03  0.1176879E-04  0.3925626E-05  0.3487922E-03 -0.6300654E-08  0.9384236E-04  0.0000000E+00
  0.1912500E+01  0.0000000E+00  0.0000000E+00 -0.6507751E-04 -0.7905785E-16 -0.3035654E-06 -0.1046433E-06 -0.2328352E-06 -0.3204821E-03  0.3217518E-05  0.0000000E+00  0.3069993E-03 -0.5977997E-08  0.8011306E-04  0.0000000E+00
  0.1937500E+01  0.0000000E+00  0.0000000E+00 -0.6346818E-04 -0.2650515E-16 -0.2013190E-06 -0.9086942E-07 -0.2144878E-06 -0.2735959E-03  0.1094502E-05  0.0000000E+00  0.2695744E-03 -0.5412098E-08  0.6839289E-04  0.0000000E+00
  0.1962500E+01  0.0000000E+00  0.0000000E+00 -0.6223435E-04 -0.1271010E-16 -0.1336078E-06 -0.7847030E-07 -0.1938269E-06 -0.2335691E-03  0.5138722E-06  0.0000000E+00  0.2380408E-03 -0.4761726E-08  0.5838776E-04  0.0000000E+00
  0.1987500E+01  0.0000000E+00  0.0000000E+00 -0.6126131E-04 -0.7414290E-17 -0.8879562E-07 -0.6748071E-07 -0.1726967E-06 -0.1993982E-03  0.3127982E-06  0.0000000E+00  0.2112952E-03 -0.4137224E-08  0.4984644E-04  0.0000000E+00
  0.2012500E+01  0.0000000E+00  0.0000000E+00 -0.6046351E-04 -0.4877091E-17 -0.5916689E-07 -0.5784794E-07 -0.1522412E-06 -0.1702264E-03  0.2194504E-06  0.0000000E+00  0.1885292E-03 -0.3571881E-08  0.4255471E-04  0.0000000E+00
  0.2037500E+01  0.0000000E+00  0.0000000E+00 -0.5977805E-04 -0.3477487E-17 -0.3960010E-07 -0.4947281E-07 -0.1331220E-06 -0.1453225E-03  0.1637933E-06  0.0000000E+00  0.1691050E-03 -0.3006432E-08  0.3632978E-04 -0.4029761E-07
  0.2062500E+01  0.0000000E+00  0.0000000E+00 -0.5916038E-04 -0.2620377E-17 -0.2669067E-07 -0.4223495E-07 -0.1156767E-06 -0.1240619E-03  0.1287032E-06  0.0000000E+00  0.1524916E-03 -0.2631066E-08  0.3101535E-04 -0.1421665E-06
  0.2087500E+01  0.0000000E+00  0.0000000E+00 -0.5857782E-04 -0.2058165E-17 -0.1817284E-07 -0.3600821E-07 -0.1000310E-06 -0.1059118E-03  0.1029588E-06  0.0000000E+00  0.1382571E-03 -0.2256519E-08  0.2647840E-04 -0.9950615E-07
  0.2112500E+01  0.0000000E+00  0.0000000E+00 -0.5800822E-04 -0.1668585E-17 -0.1254027E-07 -0.3066957E-07 -0.8617673E-07 -0.9041700E-04  0.8353976E-07  0.0000000E+00  0.1260335E-03 -0.1932429E-08  0.2260513E-04 -0.8480077E-07
  0.2137500E+01  0.0000000E+00  0.0000000E+00 -0.5743651E-04 -0.1386749E-17 -0.8795917E-08 -0.2610412E-07 -0.7402642E-07 -0.7718908E-04  0.6851835E-07  0.0000000E+00  0.1155129E-03 -0.1653741E-08  0.1929844E-04 -0.7257874E-07
  0.2162500E+01  0.0000000E+00  0.0000000E+00 -0.5685296E-04 -0.1175681E-17 -0.6284740E-08 -0.2220748E-07 -0.6344877E-07 -0.6589640E-04  0.5665793E-07  0.0000000E+00  0.1064359E-03 -0.1414545E-08  0.1647544E-04 -0.6209269E-07
  0.2187500E+01  0.0000000E+00  0.0000000E+00 -0.5625178E-04 -0.1013063E-17 -0.4579954E-08 -0.1888659E-07 -0.5429277E-07 -0.5625582E-04  0.4714326E-07  0.0000000E+00  0.9858356E-04 -0.1209501E-08  0.1406538E-04 -0.5310061E-07
  0.2212500E+01  0.0000000E+00  0.0000000E+00 -0.5563005E-04 -0.8847740E-18 -0.3405241E-08 -0.1605961E-07 -0.4640272E-07 -0.4802565E-04  0.3941626E-07  0.0000000E+00  0.9177132E-04 -0.1033892E-08  0.1200785E-04 -0.4539686E-07
  0.2237500E+01  0.0000000E+00  0.0000000E+00 -0.5498690E-04 -0.7815237E-18 -0.2582133E-08 -0.1365523E-07 -0.3962752E-07 -0.4099954E-04  0.3308104E-07  0.0000000E+00  0.8584314E-04 -0.8835912E-09  0.1025129E-04 -0.3880154E-07
  0.2262500E+01  0.0000000E+00  0.0000000E+00 -0.5432292E-04 -0.6969911E-18 -0.1995111E-08 -0.1161177E-07 -0.3382587E-07 -0.3500135E-04  0.2784801E-07  0.0000000E+00  0.8066716E-04 -0.7550157E-09  0.8751678E-05 -0.3315822E-07
  0.2287500E+01  0.0000000E+00  0.0000000E+00 -0.5363963E-04 -0.6267521E-18 -0.1568907E-08 -0.9876106E-08 -0.2886890E-07 -0.2988069E-04  0.2349974E-07  0.0000000E+00  0.7613187E-04 -0.6450672E-09  0.7471421E-05 -0.2833151E-07
  0.2312500E+01  0.0000000E+00  0.0000000E+00 -0.5293923E-04 -0.5676332E-18 -0.1253983E-08 -0.8402653E-08 -0.2464110E-07 -0.2550917E-04  0.1986954E-07  0.0000000E+00  0.7214290E-04 -0.5510754E-09  0.6378437E-05 -0.2420459E-07
  0.2337500E+01  0.0000000E+00  0.0000000E+00 -0.5222423E-04 -0.5173077E-18 -0.1017327E-08 -0.7152377E-08 -0.2104024E-07 -0.2177721E-04  0.1682725E-07  0.0000000E+00  0.6862039E-04 -0.4707432E-09  0.5445334E-05 -0.2067693E-07
  0.2362500E+01  0.0000000E+00  0.0000000E+00 -0.5149736E-04 -0.4740371E-18 -0.8366268E-09 -0.6091913E-08 -0.1797670E-07 -0.1859122E-04  0.1426973E-07  0.0000000E+00  0.6549667E-04 -0.4020985E-09  0.4648726E-05 -0.1766213E-07
  0.2387500E+01  0.0000000E+00  0.0000000E+00 -0.5076135E-04 -0.4365003E-18 -0.6965730E-09 -0.5192775E-08 -0.1537244E-07 -0.1587135E-04  0.1211430E-07  0.0000000E+00  0.6271442E-04 -0.3434496E-09  0.3968647E-05 -0.1508609E-07
  0.2412500E+01  0.0000000E+00  0.0000000E+00  0.0000000E+00  0.0000000E+00  0.0000000E+00  0.0000000E+00  0.0000000E+00  0.0000000E+00  0.2460564E-08  0.0000000E+00  0.8317971E-06 -0.2638200E-10  0.0000000E+00 -0.1414589E-08
  0.2437500E+01  0.0000000E+00  0.0000000E+00  0.0000000E+00  0.0000000E+00  0.0000000E+00  0.0000000E+00  0.0000000E+00  0.0000000E+00  0.4181841E-09  0.0000000E+00  0.1103538E-07 -0.4961384E-12  0.0000000E+00 -0.4936515E-10
  0.2462500E+01  0.0000000E+00  0.0000000E+00  0.0000000E+00  0.0000000E+00  0.0000000E+00  0.0000000E+00  0.0000000E+00  0.0000000E+00  0.7205682E-10  0.0000000E+00  0.1464151E-09 -0.7563373E-14  0.0000000E+00 -0.1432530E-11
  0.2487500E+01  0.0000000E+00  0.0000000E+00  0.0000000E+00  0.0000000E+00  0.0000000E+00  0.0000000E+00  0.0000000E+00  0.0000000E+00  0.1438827E-10  0.0000000E+00  0.1949062E-11 -0.2398244E-15  0.0000000E+00 -0.4972303E-13
  0.2512500E+01  0.0000000E+00  0.0000000E+00  0.0000000E+00  0.0000000E+00  0.0000000E+00  0.0000000E+00  0.0000000E+00  0.0000000E+00  0.4885352E-11  0.0000000E+00  0.3216209E-13 -0.1609902E-15  0.0000000E+00 -0.1375438E-13
  0.2537500E+01  0.0000000E+00  0.0000000E+00  0.0000000E+00  0.0000000E+00  0.0000000E+00  0.0000000E+00  0.0000000E+00  0.0000000E+00  0.3411295E-11  0.0000000E+00  0.6959233E-14 -0.1687928E-15  0.0000000E+00 -0.1342682E-13
  0.2600000E+01  0.0000000E+00  0.0000000E+00  0.0000000E+00  0.0000000E+00  0.0000000E+00  0.0000000E+00  0.0000000E+00  0.0000000E+00  0.3605581E-11  0.0000000E+00  0.8204918E-14 -0.1838007E-15  0.0000000E+00 -0.1488671E-13
  0.2700000E+01  0.0000000E+00  0.0000000E+00  0.0000000E+00  0.0000000E+00  0.0000000E+00  0.0000000E+00  0.0000000E+00  0.0000000E+00  0.4012306E-11  0.0000000E+00  0.9612605E-14 -0.1944454E-15  0.0000000E+00 -0.1602745E-13
  0.2800000E+01  0.0000000E+00  0.0000000E+00  0.0000000E+00  0.0000000E+00  0.0000000E+00  0.0000000E+00  0.0000000E+00  0.0000000E+00  0.4361072E-11  0.0000000E+00  0.1094762E-13 -0.1993570E-15  0.0000000E+00 -0.1676301E-13
  0.2900000E+01  0.0000000E+00  0.0000000E+00  0.0000000E+00  0.0000000E+00  0.0000000E+00  0.0000000E+00  0.0000000E+00  0.0000000E+00  0.4634922E-11  0.0000000E+00  0.1215416E-13 -0.1994614E-15  0.0000000E+00 -0.1713352E-13
  0.3000000E+01  0.0000000E+00  0.0000000E+00  0.0000000E+00  0.0000000E+00  0.0000000E+00  0.0000000E+00  0.0000000E+00  0.0000000E+00  0.4831906E-11  0.0000000E+00  0.1318337E-13 -0.1956478E-15  0.0000000E+00 -0.1719343E-13
  0.3100000E+01  0.0000000E+00  0.0000000E+00  0.0000000E+00  0.0000000E+00  0.0000000E+00  0.0000000E+00  0.0000000E+00  0.0000000E+00  0.4953468E-11  0.0000000E+00  0.1399785E-13 -0.1890764E-15  0.0000000E+00 -0.1699741E-13
  0.3200000E+01  0.0000000E+00  0.0000000E+00  0.0000000E+00  0.0000000E+00  0.0000000E+00  0.0000000E+00  0.0000000E+00  0.0000000E+00  0.5003598E-11  0.0000000E+00  0.1457500E-13 -0.1806077E-15  0.0000000E+00 -0.1660551E-13
  0.3300000E+01  0.0000000E+00  0.0000000E+00  0.0000000E+00  0.0000000E+00  0.0000000E+00  0.0000000E+00  0.0000000E+00  0.0000000E+00  0.4988414E-11  0.0000000E+00  0.1490643E-13 -0.1711675E-15  0.0000000E+00 -0.1607091E-13
  0.3400000E+01  0.0000000E+00  0.0000000E+00  0.0000000E+00  0.0000000E+00  0.0000000E+00  0.0000000E+00  0.0000000E+00  0.0000000E+00  0.4915736E-11  0.0000000E+00  0.1499846E-13 -0.1613477E-15  0.0000000E+00 -0.1544106E-13
  0.3500000E+01  0.0000000E+00  0.0000000E+00  0.0000000E+00  0.0000000E+00  0.0000000E+00  0.0000000E+00  0.0000000E+00  0.0000000E+00  0.4794570E-11  0.0000000E+00  0.1486921E-13 -0.1516566E-15  0.0000000E+00 -0.1475276E-13
  0.3600000E+01  0.0000000E+00  0.0000000E+00  0.0000000E+00  0.0000000E+00  0.0000000E+00  0.0000000E+00  0.0000000E+00  0.0000000E+00  0.4634790E-11  0.0000000E+00  0.1454856E-13 -0.1424896E-15  0.0000000E+00 -0.1403891E-13
  0.3700000E+01  0.0000000E+00  0.0000000E+00  0.0000000E+00  0.0000000E+00  0.0000000E+00  0.0000000E+00  0.0000000E+00  0.0000000E+00  0.4446582E-11  0.0000000E+00  0.1407156E-13 -0.1340708E-15  0.0000000E+00 -0.1332813E-13
  0.3800000E+01  0.0000000E+00  0.0000000E+00  0.0000000E+00  0.0000000E+00  0.0000000E+00  0.0000000E+00  0.0000000E+00  0.0000000E+00  0.4240232E-11  0.0000000E+00  0.1347747E-13 -0.1264847E-15  0.0000000E+00 -0.1263892E-13
  0.3900000E+01  0.0000000E+00  0.0000000E+00  0.0000000E+00  0.0000000E+00  0.0000000E+00  0.0000000E+00  0.0000000E+00  0.0000000E+00  0.4033984E-11  0.0000000E+00  0.1299756E-13 -0.1151627E-15  0.0000000E+00 -0.1195389E-13
  0.4000000E+01  0.0000000E+00  0.0000000E+00  0.0000000E+00  0.0000000E+00  0.0000000E+00  0.0000000E+00  0.0000000E+00  0.0000000E+00  0.3858860E-11  0.0000000E+00  0.1179949E-13 -0.1255932E-15  0.0000000E+00 -0.1206133E-13
