title = "dataset degas"
variables = "x", "y", "z","o2(g)","co2(g)","ch4(g)","n2(g)"
zone t = "R_i^g, T =  3.000E+00 years", i =   34, j =    1, k =    1,  f=point
  0.0000000E+00  0.0000000E+00  0.0000000E+00  0.0000000E+00  0.0000000E+00  0.0000000E+00  0.0000000E+00
  0.6666667E+01  0.0000000E+00  0.0000000E+00  0.0000000E+00  0.0000000E+00  0.0000000E+00  0.0000000E+00
  0.1125000E+02  0.0000000E+00  0.0000000E+00  0.0000000E+00  0.0000000E+00  0.0000000E+00  0.0000000E+00
  0.1375000E+02  0.0000000E+00  0.0000000E+00  0.0000000E+00  0.0000000E+00  0.0000000E+00  0.0000000E+00
  0.1983051E+02  0.0000000E+00  0.0000000E+00  0.0000000E+00  0.0000000E+00  0.0000000E+00  0.0000000E+00
  0.2949153E+02  0.0000000E+00  0.0000000E+00  0.0000000E+00  0.0000000E+00  0.0000000E+00  0.0000000E+00
  0.3915254E+02  0.0000000E+00  0.0000000E+00  0.2763206E-15  0.1927382E-07  0.1610218E-06  0.4550692E-06
  0.4881356E+02  0.0000000E+00  0.0000000E+00  0.2337815E-15  0.2404403E-07  0.2313904E-06  0.4953129E-06
  0.5847458E+02  0.0000000E+00  0.0000000E+00  0.1841204E-15  0.2502064E-07  0.2650556E-06  0.4552464E-06
  0.6813559E+02  0.0000000E+00  0.0000000E+00  0.1512032E-15  0.2538783E-07  0.2864110E-06  0.4164595E-06
  0.7779661E+02  0.0000000E+00  0.0000000E+00  0.1264430E-15  0.2490316E-07  0.2910774E-06  0.3801543E-06
  0.8745763E+02  0.0000000E+00  0.0000000E+00  0.1064370E-15  0.2335142E-07  0.2755847E-06  0.3463609E-06
  0.9711864E+02  0.0000000E+00  0.0000000E+00  0.9033845E-16  0.2072135E-07  0.2402972E-06  0.3141447E-06
  0.1067797E+03  0.0000000E+00  0.0000000E+00  0.7845172E-16  0.1727777E-07  0.1908041E-06  0.2814138E-06
  0.1164407E+03  0.0000000E+00  0.0000000E+00  0.7115618E-16  0.1349435E-07  0.1365980E-06  0.2457199E-06
  0.1261017E+03  0.0000000E+00  0.0000000E+00  0.6848797E-16  0.9873554E-08  0.8738868E-07  0.2057535E-06
  0.1357627E+03  0.0000000E+00  0.0000000E+00  0.0000000E+00  0.0000000E+00  0.0000000E+00  0.0000000E+00
  0.1454237E+03  0.0000000E+00  0.0000000E+00  0.0000000E+00  0.0000000E+00  0.0000000E+00  0.0000000E+00
  0.1550847E+03  0.0000000E+00  0.0000000E+00  0.0000000E+00  0.0000000E+00  0.0000000E+00  0.0000000E+00
  0.1647458E+03  0.0000000E+00  0.0000000E+00  0.0000000E+00  0.0000000E+00  0.0000000E+00  0.0000000E+00
  0.1744068E+03  0.0000000E+00  0.0000000E+00  0.0000000E+00  0.0000000E+00  0.0000000E+00  0.0000000E+00
  0.1840678E+03  0.0000000E+00  0.0000000E+00  0.0000000E+00  0.0000000E+00  0.0000000E+00  0.0000000E+00
  0.1937288E+03  0.0000000E+00  0.0000000E+00  0.0000000E+00  0.0000000E+00  0.0000000E+00  0.0000000E+00
  0.2033898E+03  0.0000000E+00  0.0000000E+00  0.0000000E+00  0.0000000E+00  0.0000000E+00  0.0000000E+00
  0.2130508E+03  0.0000000E+00  0.0000000E+00  0.0000000E+00  0.0000000E+00  0.0000000E+00  0.0000000E+00
  0.2227119E+03  0.0000000E+00  0.0000000E+00  0.0000000E+00  0.0000000E+00  0.0000000E+00  0.0000000E+00
  0.2323729E+03  0.0000000E+00  0.0000000E+00  0.0000000E+00  0.0000000E+00  0.0000000E+00  0.0000000E+00
  0.2420339E+03  0.0000000E+00  0.0000000E+00  0.0000000E+00  0.0000000E+00  0.0000000E+00  0.0000000E+00
  0.2516949E+03  0.0000000E+00  0.0000000E+00  0.0000000E+00  0.0000000E+00  0.0000000E+00  0.0000000E+00
  0.2613559E+03  0.0000000E+00  0.0000000E+00  0.0000000E+00  0.0000000E+00  0.0000000E+00  0.0000000E+00
  0.2710169E+03  0.0000000E+00  0.0000000E+00  0.0000000E+00  0.0000000E+00  0.0000000E+00  0.0000000E+00
  0.2806780E+03  0.0000000E+00  0.0000000E+00  0.0000000E+00  0.0000000E+00  0.0000000E+00  0.0000000E+00
  0.2903390E+03  0.0000000E+00  0.0000000E+00  0.0000000E+00  0.0000000E+00  0.0000000E+00  0.0000000E+00
  0.3000000E+03  0.0000000E+00  0.0000000E+00  0.0000000E+00  0.0000000E+00  0.0000000E+00  0.0000000E+00
