title = "dataset degas"
variables = "x", "y", "z","c6h6","o2(aq)","no3-1","ch4(aq)","n2(aq)","co3-2","h+1"
zone t = "T_j, T =  3.000E+00 years", i =   34, j =    1, k =    1,  f=point
  0.0000000E+00  0.0000000E+00  0.0000000E+00  0.5176742E-12  0.2654211E-03  0.1612776E-03  0.1272403E-11  0.5218474E-03  0.6229025E-02  0.6957724E-02
  0.6666667E+01  0.0000000E+00  0.0000000E+00  0.2978808E-08  0.2641696E-03  0.1612352E-03  0.7298371E-08  0.5218686E-03  0.6230073E-02  0.6959777E-02
  0.1125000E+02  0.0000000E+00  0.0000000E+00  0.6391294E-03  0.6055408E-07  0.1378707E-05  0.2890184E-04  0.6017968E-03  0.6618168E-02  0.7576881E-02
  0.1375000E+02  0.0000000E+00  0.0000000E+00  0.6397511E-03  0.7444947E-10  0.1019204E-07  0.6034553E-04  0.6024811E-03  0.6638032E-02  0.7616079E-02
  0.1983051E+02  0.0000000E+00  0.0000000E+00  0.6083163E-03  0.3540978E-11  0.8783716E-10  0.1781619E-03  0.6024861E-03  0.6707161E-02  0.7757469E-02
  0.2949153E+02  0.0000000E+00  0.0000000E+00  0.5777862E-03  0.1131779E-11  0.1221887E-10  0.2920580E-03  0.6024811E-03  0.6773981E-02  0.7894146E-02
  0.3915254E+02  0.0000000E+00  0.0000000E+00  0.5478477E-03  0.6493761E-12  0.5293618E-11  0.3859826E-03  0.5589340E-03  0.6836222E-02  0.8021541E-02
  0.4881356E+02  0.0000000E+00  0.0000000E+00  0.5176930E-03  0.4628197E-12  0.3403573E-11  0.4672475E-03  0.5124853E-03  0.6894136E-02  0.8140103E-02
  0.5847458E+02  0.0000000E+00  0.0000000E+00  0.4858492E-03  0.3654026E-12  0.2578830E-11  0.5365459E-03  0.4721896E-03  0.6945756E-02  0.8245788E-02
  0.6813559E+02  0.0000000E+00  0.0000000E+00  0.4503467E-03  0.3056276E-12  0.2123613E-11  0.5905018E-03  0.4399510E-03  0.6987457E-02  0.8331169E-02
  0.7779661E+02  0.0000000E+00  0.0000000E+00  0.4093336E-03  0.2660746E-12  0.1839117E-11  0.6247657E-03  0.4180889E-03  0.7014750E-02  0.8387055E-02
  0.8745763E+02  0.0000000E+00  0.0000000E+00  0.3619284E-03  0.2404364E-12  0.1655933E-11  0.6349843E-03  0.4089185E-03  0.7023430E-02  0.8404834E-02
  0.9711864E+02  0.0000000E+00  0.0000000E+00  0.3088571E-03  0.2278214E-12  0.1557891E-11  0.6181168E-03  0.4140489E-03  0.7011037E-02  0.8379470E-02
  0.1067797E+03  0.0000000E+00  0.0000000E+00  0.2524877E-03  0.2313097E-12  0.1565287E-11  0.5738245E-03  0.4336473E-03  0.6978037E-02  0.8311915E-02
  0.1164407E+03  0.0000000E+00  0.0000000E+00  0.1962095E-03  0.2581524E-12  0.1736836E-11  0.5054844E-03  0.4659120E-03  0.6928175E-02  0.8209841E-02
  0.1261017E+03  0.0000000E+00  0.0000000E+00  0.1434612E-03  0.3229269E-12  0.2196686E-11  0.4202862E-03  0.5070342E-03  0.6867819E-02  0.8086290E-02
  0.1357627E+03  0.0000000E+00  0.0000000E+00  0.9684957E-04  0.4633590E-12  0.3345373E-11  0.3275350E-03  0.5500910E-03  0.6804467E-02  0.7956611E-02
  0.1454237E+03  0.0000000E+00  0.0000000E+00  0.5766414E-04  0.8126685E-12  0.7230887E-11  0.2340746E-03  0.5755434E-03  0.6744726E-02  0.7834361E-02
  0.1550847E+03  0.0000000E+00  0.0000000E+00  0.2584856E-04  0.2673244E-11  0.8356389E-10  0.1529622E-03  0.5893024E-03  0.6694624E-02  0.7731851E-02
  0.1647458E+03  0.0000000E+00  0.0000000E+00  0.2820067E-05  0.7905228E-10  0.1531345E-04  0.9256034E-04  0.5886532E-03  0.6642647E-02  0.7641531E-02
  0.1744068E+03  0.0000000E+00  0.0000000E+00  0.3368366E-07  0.6585985E-04  0.6777146E-04  0.5384657E-04  0.5658213E-03  0.6514216E-02  0.7436061E-02
  0.1840678E+03  0.0000000E+00  0.0000000E+00  0.5443589E-09  0.1352339E-03  0.1022638E-03  0.3025513E-04  0.5501501E-03  0.6410126E-02  0.7261730E-02
  0.1937288E+03  0.0000000E+00  0.0000000E+00  0.4812602E-10  0.1844799E-03  0.1254796E-03  0.1644542E-04  0.5392428E-03  0.6339300E-02  0.7142920E-02
  0.2033898E+03  0.0000000E+00  0.0000000E+00  0.1426583E-10  0.2171639E-03  0.1404246E-03  0.8660127E-05  0.5320702E-03  0.6293594E-02  0.7066242E-02
  0.2130508E+03  0.0000000E+00  0.0000000E+00  0.7068721E-11  0.2377610E-03  0.1495848E-03  0.4424016E-05  0.5276140E-03  0.6265452E-02  0.7019004E-02
  0.2227119E+03  0.0000000E+00  0.0000000E+00  0.4209072E-11  0.2501456E-03  0.1549523E-03  0.2195141E-05  0.5249797E-03  0.6248862E-02  0.6991131E-02
  0.2323729E+03  0.0000000E+00  0.0000000E+00  0.2600793E-11  0.2572767E-03  0.1579703E-03  0.1059177E-05  0.5234898E-03  0.6239470E-02  0.6975335E-02
  0.2420339E+03  0.0000000E+00  0.0000000E+00  0.1581253E-11  0.2612212E-03  0.1596032E-03  0.4975215E-06  0.5226806E-03  0.6234351E-02  0.6966715E-02
  0.2516949E+03  0.0000000E+00  0.0000000E+00  0.9293442E-12  0.2633228E-03  0.1604555E-03  0.2277414E-06  0.5222570E-03  0.6231658E-02  0.6962175E-02
  0.2613559E+03  0.0000000E+00  0.0000000E+00  0.5257192E-12  0.2644040E-03  0.1608856E-03  0.1016913E-06  0.5220429E-03  0.6230289E-02  0.6959864E-02
  0.2710169E+03  0.0000000E+00  0.0000000E+00  0.2864616E-12  0.2649421E-03  0.1610958E-03  0.4433428E-07  0.5219381E-03  0.6229615E-02  0.6958724E-02
  0.2806780E+03  0.0000000E+00  0.0000000E+00  0.1507759E-12  0.2652016E-03  0.1611955E-03  0.1888821E-07  0.5218884E-03  0.6229293E-02  0.6958178E-02
  0.2903390E+03  0.0000000E+00  0.0000000E+00  0.7698427E-13  0.2653232E-03  0.1612415E-03  0.7870520E-08  0.5218654E-03  0.6229143E-02  0.6957924E-02
  0.3000000E+03  0.0000000E+00  0.0000000E+00  0.5142926E-13  0.2653615E-03  0.1612558E-03  0.4579930E-08  0.5218583E-03  0.6229096E-02  0.6957845E-02
