title = "dataset degas"
variables = "x", "y", "z","o2(g)","co2(g)","ch4(g)","n2(g)", "p_t_o_t"
zone t = "G_i, T =  3.000E+00 years", i =   34, j =    1, k =    1,  f=point
  0.0000000E+00  0.0000000E+00  0.0000000E+00  0.2099998E+00  0.2212155E-01  0.9869798E-09  0.7900000E+00  0.1022121E+01
  0.6666667E+01  0.0000000E+00  0.0000000E+00  0.2090097E+00  0.2215167E-01  0.5661213E-05  0.7900320E+00  0.1021199E+01
  0.1125000E+02  0.0000000E+00  0.0000000E+00  0.4791007E-04  0.2902792E-01  0.2241862E-01  0.9110314E+00  0.9625258E+00
  0.1375000E+02  0.0000000E+00  0.0000000E+00  0.5890403E-07  0.2960852E-01  0.4680891E-01  0.9120671E+00  0.9884846E+00
  0.1983051E+02  0.0000000E+00  0.0000000E+00  0.2801602E-08  0.3177908E-01  0.1381969E+00  0.9120744E+00  0.1082050E+01
  0.2949153E+02  0.0000000E+00  0.0000000E+00  0.8954569E-09  0.3387846E-01  0.2265438E+00  0.9120664E+00  0.1172489E+01
  0.3915254E+02  0.0000000E+00  0.0000000E+00  0.5137824E-09  0.3583718E-01  0.2993992E+00  0.8461423E+00  0.1181379E+01
  0.4881356E+02  0.0000000E+00  0.0000000E+00  0.3661799E-09  0.3766098E-01  0.3624347E+00  0.7758256E+00  0.1175921E+01
  0.5847458E+02  0.0000000E+00  0.0000000E+00  0.2891041E-09  0.3928718E-01  0.4161879E+00  0.7148238E+00  0.1170299E+01
  0.6813559E+02  0.0000000E+00  0.0000000E+00  0.2418105E-09  0.4060127E-01  0.4580403E+00  0.6660192E+00  0.1164661E+01
  0.7779661E+02  0.0000000E+00  0.0000000E+00  0.2105163E-09  0.4146155E-01  0.4846180E+00  0.6329233E+00  0.1159003E+01
  0.8745763E+02  0.0000000E+00  0.0000000E+00  0.1902316E-09  0.4173531E-01  0.4925444E+00  0.6190406E+00  0.1153320E+01
  0.9711864E+02  0.0000000E+00  0.0000000E+00  0.1802507E-09  0.4134494E-01  0.4794606E+00  0.6268073E+00  0.1147613E+01
  0.1067797E+03  0.0000000E+00  0.0000000E+00  0.1830106E-09  0.4030524E-01  0.4451041E+00  0.6564764E+00  0.1141886E+01
  0.1164407E+03  0.0000000E+00  0.0000000E+00  0.2042485E-09  0.3873452E-01  0.3920942E+00  0.7053205E+00  0.1136149E+01
  0.1261017E+03  0.0000000E+00  0.0000000E+00  0.2554977E-09  0.3683378E-01  0.3260078E+00  0.7675736E+00  0.1130415E+01
  0.1357627E+03  0.0000000E+00  0.0000000E+00  0.3666069E-09  0.3483947E-01  0.2540625E+00  0.8327555E+00  0.1121657E+01
  0.1454237E+03  0.0000000E+00  0.0000000E+00  0.6429786E-09  0.3296052E-01  0.1815672E+00  0.8712869E+00  0.1085815E+01
  0.1550847E+03  0.0000000E+00  0.0000000E+00  0.2115056E-08  0.3138576E-01  0.1186499E+00  0.8921162E+00  0.1042152E+01
  0.1647458E+03  0.0000000E+00  0.0000000E+00  0.6254574E-07  0.3023333E-01  0.7179733E-01  0.8911337E+00  0.9931644E+00
  0.1744068E+03  0.0000000E+00  0.0000000E+00  0.5210797E-01  0.2791788E-01  0.4176779E-01  0.8565697E+00  0.9783634E+00
  0.1840678E+03  0.0000000E+00  0.0000000E+00  0.1069964E+00  0.2580851E-01  0.2346835E-01  0.8328459E+00  0.9891192E+00
  0.1937288E+03  0.0000000E+00  0.0000000E+00  0.1459596E+00  0.2436837E-01  0.1275641E-01  0.8163340E+00  0.9994184E+00
  0.2033898E+03  0.0000000E+00  0.0000000E+00  0.1718190E+00  0.2343927E-01  0.6717502E-02  0.8054758E+00  0.1007452E+01
  0.2130508E+03  0.0000000E+00  0.0000000E+00  0.1881154E+00  0.2286662E-01  0.3431628E-02  0.7987298E+00  0.1013143E+01
  0.2227119E+03  0.0000000E+00  0.0000000E+00  0.1979140E+00  0.2252835E-01  0.1702731E-02  0.7947418E+00  0.1016887E+01
  0.2323729E+03  0.0000000E+00  0.0000000E+00  0.2035561E+00  0.2233636E-01  0.8215844E-03  0.7924864E+00  0.1019200E+01
  0.2420339E+03  0.0000000E+00  0.0000000E+00  0.2066769E+00  0.2223142E-01  0.3859184E-03  0.7912613E+00  0.1020556E+01
  0.2516949E+03  0.0000000E+00  0.0000000E+00  0.2083397E+00  0.2217605E-01  0.1766548E-03  0.7906201E+00  0.1021313E+01
  0.2613559E+03  0.0000000E+00  0.0000000E+00  0.2091951E+00  0.2214781E-01  0.7888008E-04  0.7902959E+00  0.1021718E+01
  0.2710169E+03  0.0000000E+00  0.0000000E+00  0.2096208E+00  0.2213385E-01  0.3438929E-04  0.7901373E+00  0.1021926E+01
  0.2806780E+03  0.0000000E+00  0.0000000E+00  0.2098262E+00  0.2212716E-01  0.1465124E-04  0.7900620E+00  0.1022030E+01
  0.2903390E+03  0.0000000E+00  0.0000000E+00  0.2099224E+00  0.2212404E-01  0.6105019E-05  0.7900273E+00  0.1022080E+01
  0.3000000E+03  0.0000000E+00  0.0000000E+00  0.2099527E+00  0.2212306E-01  0.3552568E-05  0.7900165E+00  0.1022096E+01
