title = "dataset degas"
variables = "x","y","z","pH","pe","Eh","ionic strength","C-Alk [eq/L]","NC-Alk [eq/L]","Alk [eq/L]","C-Alk [mg/L CaCO_3]","NC-Alk [mg/L CACO_3]","Alk [mg/L CaCO_3]","temperature"
zone t = "Master variables, T =  3.000E+00 years", i =   34, j =    1, k =    1,  f=point
  0.0000000E+00  0.0000000E+00  0.0000000E+00  0.7200000E+01  0.1341058E+02  0.7912243E+03  0.2835701E-02  0.5500224E-02 -0.6660417E-07  0.5500158E-02  0.2752571E+03 -0.3333186E-02  0.2752537E+03  0.2500000E+02
  0.6666667E+01  0.0000000E+00  0.0000000E+00  0.7199413E+01  0.1341065E+02  0.7912286E+03  0.2835695E-02  0.5500267E-02 -0.6669417E-07  0.5500200E-02  0.2752592E+03 -0.3337690E-02  0.2752559E+03  0.2500000E+02
  0.1125000E+02  0.0000000E+00  0.0000000E+00  0.7094565E+01  0.1260557E+02  0.7437287E+03  0.2834404E-02  0.5659407E-02 -0.8490466E-07  0.5659322E-02  0.2832233E+03 -0.4249028E-02  0.2832191E+03  0.2500000E+02
  0.1375000E+02  0.0000000E+00  0.0000000E+00  0.7086019E+01  0.1188655E+02  0.7013062E+03  0.2833910E-02  0.5659942E-02 -0.8659156E-07  0.5659855E-02  0.2832501E+03 -0.4333449E-02  0.2832457E+03  0.2500000E+02
  0.1983051E+02  0.0000000E+00  0.0000000E+00  0.7055104E+01  0.1158678E+02  0.6836198E+03  0.2832081E-02  0.5656825E-02 -0.9297882E-07  0.5656732E-02  0.2830941E+03 -0.4653097E-02  0.2830895E+03  0.2500000E+02
  0.2949153E+02  0.0000000E+00  0.0000000E+00  0.7027132E+01  0.1149091E+02  0.6779637E+03  0.2830345E-02  0.5653802E-02 -0.9916308E-07  0.5653703E-02  0.2829428E+03 -0.4962587E-02  0.2829379E+03  0.2500000E+02
  0.3915254E+02  0.0000000E+00  0.0000000E+00  0.7002534E+01  0.1145519E+02  0.6758563E+03  0.2828709E-02  0.5650901E-02 -0.1049402E-06  0.5650796E-02  0.2827976E+03 -0.5251701E-02  0.2827924E+03  0.2500000E+02
  0.4881356E+02  0.0000000E+00  0.0000000E+00  0.6980797E+01  0.1144016E+02  0.6749693E+03  0.2827192E-02  0.5648178E-02 -0.1103248E-06  0.5648068E-02  0.2826614E+03 -0.5521174E-02  0.2826558E+03  0.2500000E+02
  0.5847458E+02  0.0000000E+00  0.0000000E+00  0.6962276E+01  0.1143302E+02  0.6745481E+03  0.2825848E-02  0.5645743E-02 -0.1151304E-06  0.5645627E-02  0.2825395E+03 -0.5761667E-02  0.2825337E+03  0.2500000E+02
  0.6813559E+02  0.0000000E+00  0.0000000E+00  0.6947854E+01  0.1142805E+02  0.6742547E+03  0.2824767E-02  0.5643769E-02 -0.1190167E-06  0.5643650E-02  0.2824407E+03 -0.5956154E-02  0.2824348E+03  0.2500000E+02
  0.7779661E+02  0.0000000E+00  0.0000000E+00  0.6938660E+01  0.1142219E+02  0.6739093E+03  0.2824061E-02  0.5642473E-02 -0.1215624E-06  0.5642352E-02  0.2823759E+03 -0.6083554E-02  0.2823698E+03  0.2500000E+02
  0.8745763E+02  0.0000000E+00  0.0000000E+00  0.6935774E+01  0.1141408E+02  0.6734306E+03  0.2823834E-02  0.5642056E-02 -0.1223729E-06  0.5641933E-02  0.2823550E+03 -0.6124117E-02  0.2823489E+03  0.2500000E+02
  0.9711864E+02  0.0000000E+00  0.0000000E+00  0.6939893E+01  0.1140411E+02  0.6728423E+03  0.2824149E-02  0.5642633E-02 -0.1212179E-06  0.5642512E-02  0.2823839E+03 -0.6066315E-02  0.2823778E+03  0.2500000E+02
  0.1067797E+03  0.0000000E+00  0.0000000E+00  0.6951058E+01  0.1139459E+02  0.6722809E+03  0.2824995E-02  0.5644182E-02 -0.1181422E-06  0.5644064E-02  0.2824614E+03 -0.5912391E-02  0.2824555E+03  0.2500000E+02
  0.1164407E+03  0.0000000E+00  0.0000000E+00  0.6968478E+01  0.1138909E+02  0.6719564E+03  0.2826280E-02  0.5646523E-02 -0.1134985E-06  0.5646410E-02  0.2825786E+03 -0.5680001E-02  0.2825729E+03  0.2500000E+02
  0.1261017E+03  0.0000000E+00  0.0000000E+00  0.6990516E+01  0.1139136E+02  0.6720902E+03  0.2827848E-02  0.5649353E-02 -0.1078840E-06  0.5649245E-02  0.2827202E+03 -0.5399025E-02  0.2827148E+03  0.2500000E+02
  0.1357627E+03  0.0000000E+00  0.0000000E+00  0.7014884E+01  0.1140620E+02  0.6729655E+03  0.2829507E-02  0.5652314E-02 -0.1019990E-06  0.5652212E-02  0.2828683E+03 -0.5104509E-02  0.2828632E+03  0.2500000E+02
  0.1454237E+03  0.0000000E+00  0.0000000E+00  0.7039137E+01  0.1144294E+02  0.6751335E+03  0.2831074E-02  0.5655071E-02 -0.9646025E-07  0.5654974E-02  0.2830063E+03 -0.4827324E-02  0.2830015E+03  0.2500000E+02
  0.1550847E+03  0.0000000E+00  0.0000000E+00  0.7060541E+01  0.1155082E+02  0.6814982E+03  0.2832397E-02  0.5657366E-02 -0.9182234E-07  0.5657274E-02  0.2831212E+03 -0.4595222E-02  0.2831166E+03  0.2500000E+02
  0.1647458E+03  0.0000000E+00  0.0000000E+00  0.7075715E+01  0.1190336E+02  0.7022983E+03  0.2833353E-02  0.5643725E-02 -0.8867022E-07  0.5643636E-02  0.2824385E+03 -0.4437474E-02  0.2824341E+03  0.2500000E+02
  0.1744068E+03  0.0000000E+00  0.0000000E+00  0.7106299E+01  0.1335295E+02  0.7878242E+03  0.2834115E-02  0.5592317E-02 -0.8264115E-07  0.5592234E-02  0.2798658E+03 -0.4135751E-02  0.2798617E+03  0.2500000E+02
  0.1840678E+03  0.0000000E+00  0.0000000E+00  0.7137732E+01  0.1339964E+02  0.7905786E+03  0.2834702E-02  0.5558452E-02 -0.7687154E-07  0.5558376E-02  0.2781711E+03 -0.3847013E-02  0.2781672E+03  0.2500000E+02
  0.1937288E+03  0.0000000E+00  0.0000000E+00  0.7160842E+01  0.1341024E+02  0.7912043E+03  0.2835098E-02  0.5535599E-02 -0.7288827E-07  0.5535526E-02  0.2770274E+03 -0.3647672E-02  0.2770238E+03  0.2500000E+02
  0.2033898E+03  0.0000000E+00  0.0000000E+00  0.7176539E+01  0.1341226E+02  0.7913231E+03  0.2835352E-02  0.5520856E-02 -0.7030094E-07  0.5520786E-02  0.2762896E+03 -0.3518189E-02  0.2762861E+03  0.2500000E+02
  0.2130508E+03  0.0000000E+00  0.0000000E+00  0.7186551E+01  0.1341208E+02  0.7913128E+03  0.2835506E-02  0.5511805E-02 -0.6869888E-07  0.5511736E-02  0.2758366E+03 -0.3438015E-02  0.2758332E+03  0.2500000E+02
  0.2227119E+03  0.0000000E+00  0.0000000E+00  0.7192594E+01  0.1341155E+02  0.7912815E+03  0.2835596E-02  0.5506494E-02 -0.6774962E-07  0.5506426E-02  0.2755708E+03 -0.3390509E-02  0.2755674E+03  0.2500000E+02
  0.2323729E+03  0.0000000E+00  0.0000000E+00  0.7196069E+01  0.1341113E+02  0.7912566E+03  0.2835647E-02  0.5503505E-02 -0.6720972E-07  0.5503437E-02  0.2754212E+03 -0.3363490E-02  0.2754179E+03  0.2500000E+02
  0.2420339E+03  0.0000000E+00  0.0000000E+00  0.7197983E+01  0.1341087E+02  0.7912411E+03  0.2835674E-02  0.5501886E-02 -0.6691417E-07  0.5501819E-02  0.2753402E+03 -0.3348699E-02  0.2753369E+03  0.2500000E+02
  0.2516949E+03  0.0000000E+00  0.0000000E+00  0.7198997E+01  0.1341072E+02  0.7912326E+03  0.2835688E-02  0.5501040E-02 -0.6675807E-07  0.5500973E-02  0.2752979E+03 -0.3340888E-02  0.2752946E+03  0.2500000E+02
  0.2613559E+03  0.0000000E+00  0.0000000E+00  0.7199516E+01  0.1341065E+02  0.7912282E+03  0.2835695E-02  0.5500613E-02 -0.6667837E-07  0.5500546E-02  0.2752765E+03 -0.3336899E-02  0.2752732E+03  0.2500000E+02
  0.2710169E+03  0.0000000E+00  0.0000000E+00  0.7199773E+01  0.1341061E+02  0.7912261E+03  0.2835698E-02  0.5500404E-02 -0.6663895E-07  0.5500337E-02  0.2752661E+03 -0.3334926E-02  0.2752627E+03  0.2500000E+02
  0.2806780E+03  0.0000000E+00  0.0000000E+00  0.7199896E+01  0.1341060E+02  0.7912251E+03  0.2835700E-02  0.5500305E-02 -0.6662004E-07  0.5500238E-02  0.2752611E+03 -0.3333980E-02  0.2752578E+03  0.2500000E+02
  0.2903390E+03  0.0000000E+00  0.0000000E+00  0.7199954E+01  0.1341059E+02  0.7912246E+03  0.2835700E-02  0.5500259E-02 -0.6661122E-07  0.5500193E-02  0.2752588E+03 -0.3333538E-02  0.2752555E+03  0.2500000E+02
  0.3000000E+03  0.0000000E+00  0.0000000E+00  0.7199972E+01  0.1341058E+02  0.7912245E+03  0.2835700E-02  0.5500245E-02 -0.6660845E-07  0.5500179E-02  0.2752581E+03 -0.3333400E-02  0.2752548E+03  0.2500000E+02
