title = "dataset degas"
variables = "x", "y", "z","c6h6-o2","c6h6-no3","c6h6-ch4-2"
zone t = "intra-aqueous reactions , T =  3.000E+00 years", i =   34, j =    1, k =    1,  f=point
  0.0000000E+00  0.0000000E+00  0.0000000E+00 -0.1167076E-16 -0.2431576E-19 -0.1122598E-21
  0.6666667E+01  0.0000000E+00  0.0000000E+00 -0.2369955E-08 -0.4960817E-11 -0.2290024E-13
  0.1125000E+02  0.0000000E+00  0.0000000E+00 -0.1408938E-05 -0.1065976E-05 -0.3081312E-06
  0.1375000E+02  0.0000000E+00  0.0000000E+00 -0.3227074E-09 -0.9127645E-08 -0.3353157E-06
  0.1983051E+02  0.0000000E+00  0.0000000E+00 -0.9788029E-13 -0.1743454E-10 -0.3252774E-06
  0.2949153E+02  0.0000000E+00  0.0000000E+00 -0.3325311E-14 -0.1304671E-12 -0.3149321E-06
  0.3915254E+02  0.0000000E+00  0.0000000E+00 -0.6290742E-15 -0.1194865E-13 -0.3043896E-06
  0.4881356E+02  0.0000000E+00  0.0000000E+00 -0.2265544E-15 -0.3262155E-14 -0.2933503E-06
  0.5847458E+02  0.0000000E+00  0.0000000E+00 -0.1105378E-15 -0.1425927E-14 -0.2812063E-06
  0.6813559E+02  0.0000000E+00  0.0000000E+00 -0.6389783E-16 -0.7921565E-15 -0.2670382E-06
  0.7779661E+02  0.0000000E+00  0.0000000E+00 -0.4144053E-16 -0.5076899E-15 -0.2497824E-06
  0.8745763E+02  0.0000000E+00  0.0000000E+00 -0.2982711E-16 -0.3621450E-15 -0.2285423E-06
  0.9711864E+02  0.0000000E+00  0.0000000E+00 -0.2447041E-16 -0.2907852E-15 -0.2029381E-06
  0.1067797E+03  0.0000000E+00  0.0000000E+00 -0.2428392E-16 -0.2789464E-15 -0.1733663E-06
  0.1164407E+03  0.0000000E+00  0.0000000E+00 -0.3120025E-16 -0.3500297E-15 -0.1410622E-06
  0.1261017E+03  0.0000000E+00  0.0000000E+00 -0.5425814E-16 -0.6214603E-15 -0.1078974E-06
  0.1357627E+03  0.0000000E+00  0.0000000E+00 -0.1334591E-15 -0.1781421E-14 -0.7593606E-07
  0.1454237E+03  0.0000000E+00  0.0000000E+00 -0.5315324E-15 -0.1232460E-13 -0.4688725E-07
  0.1550847E+03  0.0000000E+00  0.0000000E+00 -0.1024316E-13 -0.3609664E-11 -0.2166935E-07
  0.1647458E+03  0.0000000E+00  0.0000000E+00 -0.1162978E-10 -0.1454418E-06 -0.1235640E-08
  0.1744068E+03  0.0000000E+00  0.0000000E+00 -0.2748289E-07 -0.2095668E-09 -0.1769860E-11
  0.1840678E+03  0.0000000E+00  0.0000000E+00 -0.3265685E-09 -0.1285772E-11 -0.8484852E-14
  0.1937288E+03  0.0000000E+00  0.0000000E+00 -0.4296154E-11 -0.1264283E-13 -0.7157171E-16
  0.2033898E+03  0.0000000E+00  0.0000000E+00 -0.1885172E-12 -0.4754819E-15 -0.2460625E-17
  0.2130508E+03  0.0000000E+00  0.0000000E+00 -0.2615317E-13 -0.6052305E-16 -0.2974234E-18
  0.2227119E+03  0.0000000E+00  0.0000000E+00 -0.5832493E-14 -0.1285999E-16 -0.6137961E-19
  0.2323729E+03  0.0000000E+00  0.0000000E+00 -0.1419942E-14 -0.3047930E-17 -0.1431605E-19
  0.2420339E+03  0.0000000E+00  0.0000000E+00 -0.3256194E-15 -0.6888578E-18 -0.3207966E-20
  0.2516949E+03  0.0000000E+00  0.0000000E+00 -0.6696830E-16 -0.1405916E-18 -0.6518315E-21
  0.2613559E+03  0.0000000E+00  0.0000000E+00 -0.1222088E-16 -0.2555578E-19 -0.1182223E-21
  0.2710169E+03  0.0000000E+00  0.0000000E+00 -0.1986644E-17 -0.4146301E-20 -0.1916025E-22
  0.2806780E+03  0.0000000E+00  0.0000000E+00 -0.2904678E-18 -0.6056631E-21 -0.2797365E-23
  0.2903390E+03  0.0000000E+00  0.0000000E+00 -0.3872134E-19 -0.8070355E-22 -0.3726565E-24
  0.3000000E+03  0.0000000E+00  0.0000000E+00 -0.1155042E-19 -0.2407022E-22 -0.1111385E-24
