title = "dataset degas"
variables = "x", "y", "z", "K_xx", "K_yy", "K_zz"
zone t = "K - initial [m/s]", i =   34, j =    1, k =    1,  f=point
  0.0000000E+00  0.0000000E+00  0.0000000E+00  0.5787040E-04  0.0000000E+00  0.0000000E+00
  0.6666667E+01  0.0000000E+00  0.0000000E+00  0.5787040E-04  0.0000000E+00  0.0000000E+00
  0.1125000E+02  0.0000000E+00  0.0000000E+00  0.5787040E-04  0.0000000E+00  0.0000000E+00
  0.1375000E+02  0.0000000E+00  0.0000000E+00  0.5787040E-04  0.0000000E+00  0.0000000E+00
  0.1983051E+02  0.0000000E+00  0.0000000E+00  0.5787040E-04  0.0000000E+00  0.0000000E+00
  0.2949153E+02  0.0000000E+00  0.0000000E+00  0.5787040E-04  0.0000000E+00  0.0000000E+00
  0.3915254E+02  0.0000000E+00  0.0000000E+00  0.5787040E-04  0.0000000E+00  0.0000000E+00
  0.4881356E+02  0.0000000E+00  0.0000000E+00  0.5787040E-04  0.0000000E+00  0.0000000E+00
  0.5847458E+02  0.0000000E+00  0.0000000E+00  0.5787040E-04  0.0000000E+00  0.0000000E+00
  0.6813559E+02  0.0000000E+00  0.0000000E+00  0.5787040E-04  0.0000000E+00  0.0000000E+00
  0.7779661E+02  0.0000000E+00  0.0000000E+00  0.5787040E-04  0.0000000E+00  0.0000000E+00
  0.8745763E+02  0.0000000E+00  0.0000000E+00  0.5787040E-04  0.0000000E+00  0.0000000E+00
  0.9711864E+02  0.0000000E+00  0.0000000E+00  0.5787040E-04  0.0000000E+00  0.0000000E+00
  0.1067797E+03  0.0000000E+00  0.0000000E+00  0.5787040E-04  0.0000000E+00  0.0000000E+00
  0.1164407E+03  0.0000000E+00  0.0000000E+00  0.5787040E-04  0.0000000E+00  0.0000000E+00
  0.1261017E+03  0.0000000E+00  0.0000000E+00  0.5787040E-04  0.0000000E+00  0.0000000E+00
  0.1357627E+03  0.0000000E+00  0.0000000E+00  0.5787040E-04  0.0000000E+00  0.0000000E+00
  0.1454237E+03  0.0000000E+00  0.0000000E+00  0.5787040E-04  0.0000000E+00  0.0000000E+00
  0.1550847E+03  0.0000000E+00  0.0000000E+00  0.5787040E-04  0.0000000E+00  0.0000000E+00
  0.1647458E+03  0.0000000E+00  0.0000000E+00  0.5787040E-04  0.0000000E+00  0.0000000E+00
  0.1744068E+03  0.0000000E+00  0.0000000E+00  0.5787040E-04  0.0000000E+00  0.0000000E+00
  0.1840678E+03  0.0000000E+00  0.0000000E+00  0.5787040E-04  0.0000000E+00  0.0000000E+00
  0.1937288E+03  0.0000000E+00  0.0000000E+00  0.5787040E-04  0.0000000E+00  0.0000000E+00
  0.2033898E+03  0.0000000E+00  0.0000000E+00  0.5787040E-04  0.0000000E+00  0.0000000E+00
  0.2130508E+03  0.0000000E+00  0.0000000E+00  0.5787040E-04  0.0000000E+00  0.0000000E+00
  0.2227119E+03  0.0000000E+00  0.0000000E+00  0.5787040E-04  0.0000000E+00  0.0000000E+00
  0.2323729E+03  0.0000000E+00  0.0000000E+00  0.5787040E-04  0.0000000E+00  0.0000000E+00
  0.2420339E+03  0.0000000E+00  0.0000000E+00  0.5787040E-04  0.0000000E+00  0.0000000E+00
  0.2516949E+03  0.0000000E+00  0.0000000E+00  0.5787040E-04  0.0000000E+00  0.0000000E+00
  0.2613559E+03  0.0000000E+00  0.0000000E+00  0.5787040E-04  0.0000000E+00  0.0000000E+00
  0.2710169E+03  0.0000000E+00  0.0000000E+00  0.5787040E-04  0.0000000E+00  0.0000000E+00
  0.2806780E+03  0.0000000E+00  0.0000000E+00  0.5787040E-04  0.0000000E+00  0.0000000E+00
  0.2903390E+03  0.0000000E+00  0.0000000E+00  0.5787040E-04  0.0000000E+00  0.0000000E+00
  0.3000000E+03  0.0000000E+00  0.0000000E+00  0.5787040E-04  0.0000000E+00  0.0000000E+00
