title = "dataset tranfs"
variables = "x", "y", "z", "K_xx", "K_yy", "K_zz"
zone t = "K - initial [m/s]", i =   11, j =   11, k =    1,  f=point
  0.0000000E+00  0.0000000E+00  0.0000000E+00  0.1160000E-04  0.0000000E+00  0.1160000E-04
  0.1000000E+00  0.0000000E+00  0.0000000E+00  0.1160000E-04  0.0000000E+00  0.1160000E-04
  0.2000000E+00  0.0000000E+00  0.0000000E+00  0.1160000E-04  0.0000000E+00  0.1160000E-04
  0.3000000E+00  0.0000000E+00  0.0000000E+00  0.1160000E-04  0.0000000E+00  0.1160000E-04
  0.4000000E+00  0.0000000E+00  0.0000000E+00  0.1160000E-04  0.0000000E+00  0.1160000E-04
  0.5000000E+00  0.0000000E+00  0.0000000E+00  0.1160000E-04  0.0000000E+00  0.1160000E-04
  0.6000000E+00  0.0000000E+00  0.0000000E+00  0.1160000E-04  0.0000000E+00  0.1160000E-04
  0.7000000E+00  0.0000000E+00  0.0000000E+00  0.1160000E-04  0.0000000E+00  0.1160000E-04
  0.8000000E+00  0.0000000E+00  0.0000000E+00  0.1160000E-04  0.0000000E+00  0.1160000E-04
  0.9000000E+00  0.0000000E+00  0.0000000E+00  0.1160000E-04  0.0000000E+00  0.1160000E-04
  0.1000000E+01  0.0000000E+00  0.0000000E+00  0.1160000E-04  0.0000000E+00  0.1160000E-04
  0.0000000E+00  0.0000000E+00  0.1000000E+00  0.1160000E-04  0.0000000E+00  0.1160000E-04
  0.1000000E+00  0.0000000E+00  0.1000000E+00  0.1160000E-04  0.0000000E+00  0.1160000E-04
  0.2000000E+00  0.0000000E+00  0.1000000E+00  0.1160000E-04  0.0000000E+00  0.1160000E-04
  0.3000000E+00  0.0000000E+00  0.1000000E+00  0.1160000E-04  0.0000000E+00  0.1160000E-04
  0.4000000E+00  0.0000000E+00  0.1000000E+00  0.1160000E-04  0.0000000E+00  0.1160000E-04
  0.5000000E+00  0.0000000E+00  0.1000000E+00  0.1160000E-04  0.0000000E+00  0.1160000E-04
  0.6000000E+00  0.0000000E+00  0.1000000E+00  0.1160000E-04  0.0000000E+00  0.1160000E-04
  0.7000000E+00  0.0000000E+00  0.1000000E+00  0.1160000E-04  0.0000000E+00  0.1160000E-04
  0.8000000E+00  0.0000000E+00  0.1000000E+00  0.1160000E-04  0.0000000E+00  0.1160000E-04
  0.9000000E+00  0.0000000E+00  0.1000000E+00  0.1160000E-04  0.0000000E+00  0.1160000E-04
  0.1000000E+01  0.0000000E+00  0.1000000E+00  0.1160000E-04  0.0000000E+00  0.1160000E-04
  0.0000000E+00  0.0000000E+00  0.2000000E+00  0.1160000E-04  0.0000000E+00  0.1160000E-04
  0.1000000E+00  0.0000000E+00  0.2000000E+00  0.1160000E-04  0.0000000E+00  0.1160000E-04
  0.2000000E+00  0.0000000E+00  0.2000000E+00  0.1160000E-04  0.0000000E+00  0.1160000E-04
  0.3000000E+00  0.0000000E+00  0.2000000E+00  0.1160000E-04  0.0000000E+00  0.1160000E-04
  0.4000000E+00  0.0000000E+00  0.2000000E+00  0.1160000E-04  0.0000000E+00  0.1160000E-04
  0.5000000E+00  0.0000000E+00  0.2000000E+00  0.1160000E-04  0.0000000E+00  0.1160000E-04
  0.6000000E+00  0.0000000E+00  0.2000000E+00  0.1160000E-04  0.0000000E+00  0.1160000E-04
  0.7000000E+00  0.0000000E+00  0.2000000E+00  0.1160000E-04  0.0000000E+00  0.1160000E-04
  0.8000000E+00  0.0000000E+00  0.2000000E+00  0.1160000E-04  0.0000000E+00  0.1160000E-04
  0.9000000E+00  0.0000000E+00  0.2000000E+00  0.1160000E-04  0.0000000E+00  0.1160000E-04
  0.1000000E+01  0.0000000E+00  0.2000000E+00  0.1160000E-04  0.0000000E+00  0.1160000E-04
  0.0000000E+00  0.0000000E+00  0.3000000E+00  0.1160000E-04  0.0000000E+00  0.1160000E-04
  0.1000000E+00  0.0000000E+00  0.3000000E+00  0.1160000E-04  0.0000000E+00  0.1160000E-04
  0.2000000E+00  0.0000000E+00  0.3000000E+00  0.1160000E-04  0.0000000E+00  0.1160000E-04
  0.3000000E+00  0.0000000E+00  0.3000000E+00  0.1160000E-04  0.0000000E+00  0.1160000E-04
  0.4000000E+00  0.0000000E+00  0.3000000E+00  0.1160000E-04  0.0000000E+00  0.1160000E-04
  0.5000000E+00  0.0000000E+00  0.3000000E+00  0.1160000E-04  0.0000000E+00  0.1160000E-04
  0.6000000E+00  0.0000000E+00  0.3000000E+00  0.1160000E-04  0.0000000E+00  0.1160000E-04
  0.7000000E+00  0.0000000E+00  0.3000000E+00  0.1160000E-04  0.0000000E+00  0.1160000E-04
  0.8000000E+00  0.0000000E+00  0.3000000E+00  0.1160000E-04  0.0000000E+00  0.1160000E-04
  0.9000000E+00  0.0000000E+00  0.3000000E+00  0.1160000E-04  0.0000000E+00  0.1160000E-04
  0.1000000E+01  0.0000000E+00  0.3000000E+00  0.1160000E-04  0.0000000E+00  0.1160000E-04
  0.0000000E+00  0.0000000E+00  0.4000000E+00  0.1160000E-04  0.0000000E+00  0.1160000E-04
  0.1000000E+00  0.0000000E+00  0.4000000E+00  0.1160000E-04  0.0000000E+00  0.1160000E-04
  0.2000000E+00  0.0000000E+00  0.4000000E+00  0.1160000E-04  0.0000000E+00  0.1160000E-04
  0.3000000E+00  0.0000000E+00  0.4000000E+00  0.1160000E-04  0.0000000E+00  0.1160000E-04
  0.4000000E+00  0.0000000E+00  0.4000000E+00  0.1160000E-04  0.0000000E+00  0.1160000E-04
  0.5000000E+00  0.0000000E+00  0.4000000E+00  0.1160000E-04  0.0000000E+00  0.1160000E-04
  0.6000000E+00  0.0000000E+00  0.4000000E+00  0.1160000E-04  0.0000000E+00  0.1160000E-04
  0.7000000E+00  0.0000000E+00  0.4000000E+00  0.1160000E-04  0.0000000E+00  0.1160000E-04
  0.8000000E+00  0.0000000E+00  0.4000000E+00  0.1160000E-04  0.0000000E+00  0.1160000E-04
  0.9000000E+00  0.0000000E+00  0.4000000E+00  0.1160000E-04  0.0000000E+00  0.1160000E-04
  0.1000000E+01  0.0000000E+00  0.4000000E+00  0.1160000E-04  0.0000000E+00  0.1160000E-04
  0.0000000E+00  0.0000000E+00  0.5000000E+00  0.1160000E-04  0.0000000E+00  0.1160000E-04
  0.1000000E+00  0.0000000E+00  0.5000000E+00  0.1160000E-04  0.0000000E+00  0.1160000E-04
  0.2000000E+00  0.0000000E+00  0.5000000E+00  0.1160000E-04  0.0000000E+00  0.1160000E-04
  0.3000000E+00  0.0000000E+00  0.5000000E+00  0.1160000E-04  0.0000000E+00  0.1160000E-04
  0.4000000E+00  0.0000000E+00  0.5000000E+00  0.1160000E-04  0.0000000E+00  0.1160000E-04
  0.5000000E+00  0.0000000E+00  0.5000000E+00  0.1160000E-04  0.0000000E+00  0.1160000E-04
  0.6000000E+00  0.0000000E+00  0.5000000E+00  0.1160000E-04  0.0000000E+00  0.1160000E-04
  0.7000000E+00  0.0000000E+00  0.5000000E+00  0.1160000E-04  0.0000000E+00  0.1160000E-04
  0.8000000E+00  0.0000000E+00  0.5000000E+00  0.1160000E-04  0.0000000E+00  0.1160000E-04
  0.9000000E+00  0.0000000E+00  0.5000000E+00  0.1160000E-04  0.0000000E+00  0.1160000E-04
  0.1000000E+01  0.0000000E+00  0.5000000E+00  0.1160000E-04  0.0000000E+00  0.1160000E-04
  0.0000000E+00  0.0000000E+00  0.6000000E+00  0.1160000E-04  0.0000000E+00  0.1160000E-04
  0.1000000E+00  0.0000000E+00  0.6000000E+00  0.1160000E-04  0.0000000E+00  0.1160000E-04
  0.2000000E+00  0.0000000E+00  0.6000000E+00  0.1160000E-04  0.0000000E+00  0.1160000E-04
  0.3000000E+00  0.0000000E+00  0.6000000E+00  0.1160000E-04  0.0000000E+00  0.1160000E-04
  0.4000000E+00  0.0000000E+00  0.6000000E+00  0.1160000E-04  0.0000000E+00  0.1160000E-04
  0.5000000E+00  0.0000000E+00  0.6000000E+00  0.1160000E-04  0.0000000E+00  0.1160000E-04
  0.6000000E+00  0.0000000E+00  0.6000000E+00  0.1160000E-04  0.0000000E+00  0.1160000E-04
  0.7000000E+00  0.0000000E+00  0.6000000E+00  0.1160000E-04  0.0000000E+00  0.1160000E-04
  0.8000000E+00  0.0000000E+00  0.6000000E+00  0.1160000E-04  0.0000000E+00  0.1160000E-04
  0.9000000E+00  0.0000000E+00  0.6000000E+00  0.1160000E-04  0.0000000E+00  0.1160000E-04
  0.1000000E+01  0.0000000E+00  0.6000000E+00  0.1160000E-04  0.0000000E+00  0.1160000E-04
  0.0000000E+00  0.0000000E+00  0.7000000E+00  0.1160000E-04  0.0000000E+00  0.1160000E-04
  0.1000000E+00  0.0000000E+00  0.7000000E+00  0.1160000E-04  0.0000000E+00  0.1160000E-04
  0.2000000E+00  0.0000000E+00  0.7000000E+00  0.1160000E-04  0.0000000E+00  0.1160000E-04
  0.3000000E+00  0.0000000E+00  0.7000000E+00  0.1160000E-04  0.0000000E+00  0.1160000E-04
  0.4000000E+00  0.0000000E+00  0.7000000E+00  0.1160000E-04  0.0000000E+00  0.1160000E-04
  0.5000000E+00  0.0000000E+00  0.7000000E+00  0.1160000E-04  0.0000000E+00  0.1160000E-04
  0.6000000E+00  0.0000000E+00  0.7000000E+00  0.1160000E-04  0.0000000E+00  0.1160000E-04
  0.7000000E+00  0.0000000E+00  0.7000000E+00  0.1160000E-04  0.0000000E+00  0.1160000E-04
  0.8000000E+00  0.0000000E+00  0.7000000E+00  0.1160000E-04  0.0000000E+00  0.1160000E-04
  0.9000000E+00  0.0000000E+00  0.7000000E+00  0.1160000E-04  0.0000000E+00  0.1160000E-04
  0.1000000E+01  0.0000000E+00  0.7000000E+00  0.1160000E-04  0.0000000E+00  0.1160000E-04
  0.0000000E+00  0.0000000E+00  0.8000000E+00  0.1160000E-04  0.0000000E+00  0.1160000E-04
  0.1000000E+00  0.0000000E+00  0.8000000E+00  0.1160000E-04  0.0000000E+00  0.1160000E-04
  0.2000000E+00  0.0000000E+00  0.8000000E+00  0.1160000E-04  0.0000000E+00  0.1160000E-04
  0.3000000E+00  0.0000000E+00  0.8000000E+00  0.1160000E-04  0.0000000E+00  0.1160000E-04
  0.4000000E+00  0.0000000E+00  0.8000000E+00  0.1160000E-04  0.0000000E+00  0.1160000E-04
  0.5000000E+00  0.0000000E+00  0.8000000E+00  0.1160000E-04  0.0000000E+00  0.1160000E-04
  0.6000000E+00  0.0000000E+00  0.8000000E+00  0.1160000E-04  0.0000000E+00  0.1160000E-04
  0.7000000E+00  0.0000000E+00  0.8000000E+00  0.1160000E-04  0.0000000E+00  0.1160000E-04
  0.8000000E+00  0.0000000E+00  0.8000000E+00  0.1160000E-04  0.0000000E+00  0.1160000E-04
  0.9000000E+00  0.0000000E+00  0.8000000E+00  0.1160000E-04  0.0000000E+00  0.1160000E-04
  0.1000000E+01  0.0000000E+00  0.8000000E+00  0.1160000E-04  0.0000000E+00  0.1160000E-04
  0.0000000E+00  0.0000000E+00  0.9000000E+00  0.1160000E-04  0.0000000E+00  0.1160000E-04
  0.1000000E+00  0.0000000E+00  0.9000000E+00  0.1160000E-04  0.0000000E+00  0.1160000E-04
  0.2000000E+00  0.0000000E+00  0.9000000E+00  0.1160000E-04  0.0000000E+00  0.1160000E-04
  0.3000000E+00  0.0000000E+00  0.9000000E+00  0.1160000E-04  0.0000000E+00  0.1160000E-04
  0.4000000E+00  0.0000000E+00  0.9000000E+00  0.1160000E-04  0.0000000E+00  0.1160000E-04
  0.5000000E+00  0.0000000E+00  0.9000000E+00  0.1160000E-04  0.0000000E+00  0.1160000E-04
  0.6000000E+00  0.0000000E+00  0.9000000E+00  0.1160000E-04  0.0000000E+00  0.1160000E-04
  0.7000000E+00  0.0000000E+00  0.9000000E+00  0.1160000E-04  0.0000000E+00  0.1160000E-04
  0.8000000E+00  0.0000000E+00  0.9000000E+00  0.1160000E-04  0.0000000E+00  0.1160000E-04
  0.9000000E+00  0.0000000E+00  0.9000000E+00  0.1160000E-04  0.0000000E+00  0.1160000E-04
  0.1000000E+01  0.0000000E+00  0.9000000E+00  0.1160000E-04  0.0000000E+00  0.1160000E-04
  0.0000000E+00  0.0000000E+00  0.1000000E+01  0.1160000E-04  0.0000000E+00  0.1160000E-04
  0.1000000E+00  0.0000000E+00  0.1000000E+01  0.1160000E-04  0.0000000E+00  0.1160000E-04
  0.2000000E+00  0.0000000E+00  0.1000000E+01  0.1160000E-04  0.0000000E+00  0.1160000E-04
  0.3000000E+00  0.0000000E+00  0.1000000E+01  0.1160000E-04  0.0000000E+00  0.1160000E-04
  0.4000000E+00  0.0000000E+00  0.1000000E+01  0.1160000E-04  0.0000000E+00  0.1160000E-04
  0.5000000E+00  0.0000000E+00  0.1000000E+01  0.1160000E-04  0.0000000E+00  0.1160000E-04
  0.6000000E+00  0.0000000E+00  0.1000000E+01  0.1160000E-04  0.0000000E+00  0.1160000E-04
  0.7000000E+00  0.0000000E+00  0.1000000E+01  0.1160000E-04  0.0000000E+00  0.1160000E-04
  0.8000000E+00  0.0000000E+00  0.1000000E+01  0.1160000E-04  0.0000000E+00  0.1160000E-04
  0.9000000E+00  0.0000000E+00  0.1000000E+01  0.1160000E-04  0.0000000E+00  0.1160000E-04
  0.1000000E+01  0.0000000E+00  0.1000000E+01  0.1160000E-04  0.0000000E+00  0.1160000E-04
