title = "dataset tranfs"
variables = "x", "y", "z", "h_w", "p_w", "s_w", "theta_a"
zone t = "Flow variables, solution time =  2.000E-02 days        " i =   11, j =   11, k =    1,  f=point
  0.0000000E+00  0.0000000E+00  0.0000000E+00  0.2000000E+01  0.2000000E+01  0.1000000E+01  0.1000000E+01
  0.1000000E+00  0.0000000E+00  0.0000000E+00  0.2497316E+01  0.2497316E+01  0.1000000E+01  0.1000000E+01
  0.2000000E+00  0.0000000E+00  0.0000000E+00  0.2719953E+01  0.2719953E+01  0.1000000E+01  0.1000000E+01
  0.3000000E+00  0.0000000E+00  0.0000000E+00  0.2847440E+01  0.2847440E+01  0.1000000E+01  0.1000000E+01
  0.4000000E+00  0.0000000E+00  0.0000000E+00  0.2931931E+01  0.2931931E+01  0.1000000E+01  0.1000000E+01
  0.5000000E+00  0.0000000E+00  0.0000000E+00  0.2991866E+01  0.2991866E+01  0.1000000E+01  0.1000000E+01
  0.6000000E+00  0.0000000E+00  0.0000000E+00  0.3035207E+01  0.3035207E+01  0.1000000E+01  0.1000000E+01
  0.7000000E+00  0.0000000E+00  0.0000000E+00  0.3066028E+01  0.3066028E+01  0.1000000E+01  0.1000000E+01
  0.8000000E+00  0.0000000E+00  0.0000000E+00  0.3086672E+01  0.3086672E+01  0.1000000E+01  0.1000000E+01
  0.9000000E+00  0.0000000E+00  0.0000000E+00  0.3098547E+01  0.3098547E+01  0.1000000E+01  0.1000000E+01
  0.1000000E+01  0.0000000E+00  0.0000000E+00  0.3102423E+01  0.3102423E+01  0.1000000E+01  0.1000000E+01
  0.0000000E+00  0.0000000E+00  0.1000000E+00  0.2499546E+01  0.2399546E+01  0.1000000E+01  0.1000000E+01
  0.1000000E+00  0.0000000E+00  0.1000000E+00  0.2634657E+01  0.2534657E+01  0.1000000E+01  0.1000000E+01
  0.2000000E+00  0.0000000E+00  0.1000000E+00  0.2767530E+01  0.2667530E+01  0.1000000E+01  0.1000000E+01
  0.3000000E+00  0.0000000E+00  0.1000000E+00  0.2868940E+01  0.2768940E+01  0.1000000E+01  0.1000000E+01
  0.4000000E+00  0.0000000E+00  0.1000000E+00  0.2944212E+01  0.2844212E+01  0.1000000E+01  0.1000000E+01
  0.5000000E+00  0.0000000E+00  0.1000000E+00  0.3000167E+01  0.2900167E+01  0.1000000E+01  0.1000000E+01
  0.6000000E+00  0.0000000E+00  0.1000000E+00  0.3041471E+01  0.2941471E+01  0.1000000E+01  0.1000000E+01
  0.7000000E+00  0.0000000E+00  0.1000000E+00  0.3071119E+01  0.2971119E+01  0.1000000E+01  0.1000000E+01
  0.8000000E+00  0.0000000E+00  0.1000000E+00  0.3091061E+01  0.2991061E+01  0.1000000E+01  0.1000000E+01
  0.9000000E+00  0.0000000E+00  0.1000000E+00  0.3102551E+01  0.3002551E+01  0.1000000E+01  0.1000000E+01
  0.1000000E+01  0.0000000E+00  0.1000000E+00  0.3106303E+01  0.3006303E+01  0.1000000E+01  0.1000000E+01
  0.0000000E+00  0.0000000E+00  0.2000000E+00  0.2728874E+01  0.2528874E+01  0.1000000E+01  0.1000000E+01
  0.1000000E+00  0.0000000E+00  0.2000000E+00  0.2774238E+01  0.2574238E+01  0.1000000E+01  0.1000000E+01
  0.2000000E+00  0.0000000E+00  0.2000000E+00  0.2846577E+01  0.2646577E+01  0.1000000E+01  0.1000000E+01
  0.3000000E+00  0.0000000E+00  0.2000000E+00  0.2916585E+01  0.2716585E+01  0.1000000E+01  0.1000000E+01
  0.4000000E+00  0.0000000E+00  0.2000000E+00  0.2975816E+01  0.2775816E+01  0.1000000E+01  0.1000000E+01
  0.5000000E+00  0.0000000E+00  0.2000000E+00  0.3023124E+01  0.2823124E+01  0.1000000E+01  0.1000000E+01
  0.6000000E+00  0.0000000E+00  0.2000000E+00  0.3059398E+01  0.2859398E+01  0.1000000E+01  0.1000000E+01
  0.7000000E+00  0.0000000E+00  0.2000000E+00  0.3085924E+01  0.2885924E+01  0.1000000E+01  0.1000000E+01
  0.8000000E+00  0.0000000E+00  0.2000000E+00  0.3103909E+01  0.2903909E+01  0.1000000E+01  0.1000000E+01
  0.9000000E+00  0.0000000E+00  0.2000000E+00  0.3114299E+01  0.2914299E+01  0.1000000E+01  0.1000000E+01
  0.1000000E+01  0.0000000E+00  0.2000000E+00  0.3117694E+01  0.2917694E+01  0.1000000E+01  0.1000000E+01
  0.0000000E+00  0.0000000E+00  0.3000000E+00  0.2867478E+01  0.2567478E+01  0.1000000E+01  0.1000000E+01
  0.1000000E+00  0.0000000E+00  0.3000000E+00  0.2886851E+01  0.2586851E+01  0.1000000E+01  0.1000000E+01
  0.2000000E+00  0.0000000E+00  0.3000000E+00  0.2927960E+01  0.2627960E+01  0.1000000E+01  0.1000000E+01
  0.3000000E+00  0.0000000E+00  0.3000000E+00  0.2975014E+01  0.2675014E+01  0.1000000E+01  0.1000000E+01
  0.4000000E+00  0.0000000E+00  0.3000000E+00  0.3019348E+01  0.2719348E+01  0.1000000E+01  0.1000000E+01
  0.5000000E+00  0.0000000E+00  0.3000000E+00  0.3057124E+01  0.2757124E+01  0.1000000E+01  0.1000000E+01
  0.6000000E+00  0.0000000E+00  0.3000000E+00  0.3087079E+01  0.2787079E+01  0.1000000E+01  0.1000000E+01
  0.7000000E+00  0.0000000E+00  0.3000000E+00  0.3109278E+01  0.2809278E+01  0.1000000E+01  0.1000000E+01
  0.8000000E+00  0.0000000E+00  0.3000000E+00  0.3124358E+01  0.2824358E+01  0.1000000E+01  0.1000000E+01
  0.9000000E+00  0.0000000E+00  0.3000000E+00  0.3133050E+01  0.2833050E+01  0.1000000E+01  0.1000000E+01
  0.1000000E+01  0.0000000E+00  0.3000000E+00  0.3135884E+01  0.2835884E+01  0.1000000E+01  0.1000000E+01
  0.0000000E+00  0.0000000E+00  0.4000000E+00  0.2967342E+01  0.2567342E+01  0.1000000E+01  0.1000000E+01
  0.1000000E+00  0.0000000E+00  0.4000000E+00  0.2977734E+01  0.2577734E+01  0.1000000E+01  0.1000000E+01
  0.2000000E+00  0.0000000E+00  0.4000000E+00  0.3003403E+01  0.2603403E+01  0.1000000E+01  0.1000000E+01
  0.3000000E+00  0.0000000E+00  0.4000000E+00  0.3036170E+01  0.2636170E+01  0.1000000E+01  0.1000000E+01
  0.4000000E+00  0.0000000E+00  0.4000000E+00  0.3069444E+01  0.2669444E+01  0.1000000E+01  0.1000000E+01
  0.5000000E+00  0.0000000E+00  0.4000000E+00  0.3098951E+01  0.2698951E+01  0.1000000E+01  0.1000000E+01
  0.6000000E+00  0.0000000E+00  0.4000000E+00  0.3122525E+01  0.2722525E+01  0.1000000E+01  0.1000000E+01
  0.7000000E+00  0.0000000E+00  0.4000000E+00  0.3139756E+01  0.2739756E+01  0.1000000E+01  0.1000000E+01
  0.8000000E+00  0.0000000E+00  0.4000000E+00  0.3151204E+01  0.2751204E+01  0.1000000E+01  0.1000000E+01
  0.9000000E+00  0.0000000E+00  0.4000000E+00  0.3157667E+01  0.2757667E+01  0.1000000E+01  0.1000000E+01
  0.1000000E+01  0.0000000E+00  0.4000000E+00  0.3159748E+01  0.2759748E+01  0.1000000E+01  0.1000000E+01
  0.0000000E+00  0.0000000E+00  0.5000000E+00  0.3046429E+01  0.2546429E+01  0.1000000E+01  0.1000000E+01
  0.1000000E+00  0.0000000E+00  0.5000000E+00  0.3053346E+01  0.2553346E+01  0.1000000E+01  0.1000000E+01
  0.2000000E+00  0.0000000E+00  0.5000000E+00  0.3071755E+01  0.2571755E+01  0.1000000E+01  0.1000000E+01
  0.3000000E+00  0.0000000E+00  0.5000000E+00  0.3096826E+01  0.2596826E+01  0.1000000E+01  0.1000000E+01
  0.4000000E+00  0.0000000E+00  0.5000000E+00  0.3123313E+01  0.2623313E+01  0.1000000E+01  0.1000000E+01
  0.5000000E+00  0.0000000E+00  0.5000000E+00  0.3146720E+01  0.2646720E+01  0.1000000E+01  0.1000000E+01
  0.6000000E+00  0.0000000E+00  0.5000000E+00  0.3164320E+01  0.2664320E+01  0.1000000E+01  0.1000000E+01
  0.7000000E+00  0.0000000E+00  0.5000000E+00  0.3176026E+01  0.2676026E+01  0.1000000E+01  0.1000000E+01
  0.8000000E+00  0.0000000E+00  0.5000000E+00  0.3183042E+01  0.2683042E+01  0.1000000E+01  0.1000000E+01
  0.9000000E+00  0.0000000E+00  0.5000000E+00  0.3186672E+01  0.2686672E+01  0.1000000E+01  0.1000000E+01
  0.1000000E+01  0.0000000E+00  0.5000000E+00  0.3187784E+01  0.2687784E+01  0.1000000E+01  0.1000000E+01
  0.0000000E+00  0.0000000E+00  0.6000000E+00  0.3111688E+01  0.2511688E+01  0.1000000E+01  0.1000000E+01
  0.1000000E+00  0.0000000E+00  0.6000000E+00  0.3117472E+01  0.2517472E+01  0.1000000E+01  0.1000000E+01
  0.2000000E+00  0.0000000E+00  0.6000000E+00  0.3133453E+01  0.2533453E+01  0.1000000E+01  0.1000000E+01
  0.3000000E+00  0.0000000E+00  0.6000000E+00  0.3156073E+01  0.2556073E+01  0.1000000E+01  0.1000000E+01
  0.4000000E+00  0.0000000E+00  0.6000000E+00  0.3180270E+01  0.2580270E+01  0.1000000E+01  0.1000000E+01
  0.5000000E+00  0.0000000E+00  0.6000000E+00  0.3200303E+01  0.2600303E+01  0.1000000E+01  0.1000000E+01
  0.6000000E+00  0.0000000E+00  0.6000000E+00  0.3212017E+01  0.2612017E+01  0.1000000E+01  0.1000000E+01
  0.7000000E+00  0.0000000E+00  0.6000000E+00  0.3216991E+01  0.2616991E+01  0.1000000E+01  0.1000000E+01
  0.8000000E+00  0.0000000E+00  0.6000000E+00  0.3218275E+01  0.2618275E+01  0.1000000E+01  0.1000000E+01
  0.9000000E+00  0.0000000E+00  0.6000000E+00  0.3218204E+01  0.2618204E+01  0.1000000E+01  0.1000000E+01
  0.1000000E+01  0.0000000E+00  0.6000000E+00  0.3218050E+01  0.2618050E+01  0.1000000E+01  0.1000000E+01
  0.0000000E+00  0.0000000E+00  0.7000000E+00  0.3165386E+01  0.2465386E+01  0.1000000E+01  0.1000000E+01
  0.1000000E+00  0.0000000E+00  0.7000000E+00  0.3171407E+01  0.2471407E+01  0.1000000E+01  0.1000000E+01
  0.2000000E+00  0.0000000E+00  0.7000000E+00  0.3188521E+01  0.2488521E+01  0.1000000E+01  0.1000000E+01
  0.3000000E+00  0.0000000E+00  0.7000000E+00  0.3213749E+01  0.2513749E+01  0.1000000E+01  0.1000000E+01
  0.4000000E+00  0.0000000E+00  0.7000000E+00  0.3241398E+01  0.2541398E+01  0.1000000E+01  0.1000000E+01
  0.5000000E+00  0.0000000E+00  0.7000000E+00  0.3262211E+01  0.2562211E+01  0.1000000E+01  0.1000000E+01
  0.6000000E+00  0.0000000E+00  0.7000000E+00  0.3266463E+01  0.2566463E+01  0.1000000E+01  0.1000000E+01
  0.7000000E+00  0.0000000E+00  0.7000000E+00  0.3261655E+01  0.2561655E+01  0.1000000E+01  0.1000000E+01
  0.8000000E+00  0.0000000E+00  0.7000000E+00  0.3254871E+01  0.2554871E+01  0.1000000E+01  0.1000000E+01
  0.9000000E+00  0.0000000E+00  0.7000000E+00  0.3249825E+01  0.2549825E+01  0.1000000E+01  0.1000000E+01
  0.1000000E+01  0.0000000E+00  0.7000000E+00  0.3248016E+01  0.2548016E+01  0.1000000E+01  0.1000000E+01
  0.0000000E+00  0.0000000E+00  0.8000000E+00  0.3207049E+01  0.2407049E+01  0.1000000E+01  0.1000000E+01
  0.1000000E+00  0.0000000E+00  0.8000000E+00  0.3214256E+01  0.2414256E+01  0.1000000E+01  0.1000000E+01
  0.2000000E+00  0.0000000E+00  0.8000000E+00  0.3235481E+01  0.2435481E+01  0.1000000E+01  0.1000000E+01
  0.3000000E+00  0.0000000E+00  0.8000000E+00  0.3269011E+01  0.2469011E+01  0.1000000E+01  0.1000000E+01
  0.4000000E+00  0.0000000E+00  0.8000000E+00  0.3309371E+01  0.2509371E+01  0.1000000E+01  0.1000000E+01
  0.5000000E+00  0.0000000E+00  0.8000000E+00  0.3340687E+01  0.2540687E+01  0.1000000E+01  0.1000000E+01
  0.6000000E+00  0.0000000E+00  0.8000000E+00  0.3329975E+01  0.2529975E+01  0.1000000E+01  0.1000000E+01
  0.7000000E+00  0.0000000E+00  0.8000000E+00  0.3308302E+01  0.2508302E+01  0.1000000E+01  0.1000000E+01
  0.8000000E+00  0.0000000E+00  0.8000000E+00  0.3289738E+01  0.2489738E+01  0.1000000E+01  0.1000000E+01
  0.9000000E+00  0.0000000E+00  0.8000000E+00  0.3278215E+01  0.2478215E+01  0.1000000E+01  0.1000000E+01
  0.1000000E+01  0.0000000E+00  0.8000000E+00  0.3274373E+01  0.2474373E+01  0.1000000E+01  0.1000000E+01
  0.0000000E+00  0.0000000E+00  0.9000000E+00  0.3234306E+01  0.2334306E+01  0.1000000E+01  0.1000000E+01
  0.1000000E+00  0.0000000E+00  0.9000000E+00  0.3243095E+01  0.2343095E+01  0.1000000E+01  0.1000000E+01
  0.2000000E+00  0.0000000E+00  0.9000000E+00  0.3270143E+01  0.2370143E+01  0.1000000E+01  0.1000000E+01
  0.3000000E+00  0.0000000E+00  0.9000000E+00  0.3317450E+01  0.2417450E+01  0.1000000E+01  0.1000000E+01
  0.4000000E+00  0.0000000E+00  0.9000000E+00  0.3386397E+01  0.2486397E+01  0.1000000E+01  0.1000000E+01
  0.5000000E+00  0.0000000E+00  0.9000000E+00  0.3461199E+01  0.2561199E+01  0.1000000E+01  0.1000000E+01
  0.6000000E+00  0.0000000E+00  0.9000000E+00  0.3404455E+01  0.2504455E+01  0.1000000E+01  0.1000000E+01
  0.7000000E+00  0.0000000E+00  0.9000000E+00  0.3351847E+01  0.2451847E+01  0.1000000E+01  0.1000000E+01
  0.8000000E+00  0.0000000E+00  0.9000000E+00  0.3317572E+01  0.2417572E+01  0.1000000E+01  0.1000000E+01
  0.9000000E+00  0.0000000E+00  0.9000000E+00  0.3298934E+01  0.2398934E+01  0.1000000E+01  0.1000000E+01
  0.1000000E+01  0.0000000E+00  0.9000000E+00  0.3293052E+01  0.2393052E+01  0.1000000E+01  0.1000000E+01
  0.0000000E+00  0.0000000E+00  0.1000000E+01  0.3243992E+01  0.2243992E+01  0.1000000E+01  0.1000000E+01
  0.1000000E+00  0.0000000E+00  0.1000000E+01  0.3253682E+01  0.2253682E+01  0.1000000E+01  0.1000000E+01
  0.2000000E+00  0.0000000E+00  0.1000000E+01  0.3284554E+01  0.2284554E+01  0.1000000E+01  0.1000000E+01
  0.3000000E+00  0.0000000E+00  0.1000000E+01  0.3344255E+01  0.2344255E+01  0.1000000E+01  0.1000000E+01
  0.4000000E+00  0.0000000E+00  0.1000000E+01  0.3457576E+01  0.2457576E+01  0.1000000E+01  0.1000000E+01
  0.5000000E+00  0.0000000E+00  0.1000000E+01  0.3713262E+01  0.2713262E+01  0.1000000E+01  0.1000000E+01
  0.6000000E+00  0.0000000E+00  0.1000000E+01  0.3474808E+01  0.2474808E+01  0.1000000E+01  0.1000000E+01
  0.7000000E+00  0.0000000E+00  0.1000000E+01  0.3377068E+01  0.2377068E+01  0.1000000E+01  0.1000000E+01
  0.8000000E+00  0.0000000E+00  0.1000000E+01  0.3329777E+01  0.2329777E+01  0.1000000E+01  0.1000000E+01
  0.9000000E+00  0.0000000E+00  0.1000000E+01  0.3306903E+01  0.2306903E+01  0.1000000E+01  0.1000000E+01
  0.1000000E+01  0.0000000E+00  0.1000000E+01  0.3299975E+01  0.2299975E+01  0.1000000E+01  0.1000000E+01
