title = "dataset clement"
variables = "x", "y", "z", "h_w", "p_w", "s_w", "theta_a", "s_a", "theta_g"
zone t = "Flow variables, solution time =  8.000E+00 hours       " i =   31, j =   41, k =    1,  f=point
  0.0000000E+00  0.0000000E+00  0.0000000E+00  0.1101136E+01  0.1101136E+01  0.1000000E+01  0.3000000E+00  0.0000000E+00  0.0000000E+00
  0.1000000E+00  0.0000000E+00  0.0000000E+00  0.1100347E+01  0.1100347E+01  0.1000000E+01  0.3000000E+00  0.0000000E+00  0.0000000E+00
  0.2000000E+00  0.0000000E+00  0.0000000E+00  0.1097988E+01  0.1097988E+01  0.1000000E+01  0.3000000E+00  0.0000000E+00  0.0000000E+00
  0.3000000E+00  0.0000000E+00  0.0000000E+00  0.1094086E+01  0.1094086E+01  0.1000000E+01  0.3000000E+00  0.0000000E+00  0.0000000E+00
  0.4000000E+00  0.0000000E+00  0.0000000E+00  0.1088686E+01  0.1088686E+01  0.1000000E+01  0.3000000E+00  0.0000000E+00  0.0000000E+00
  0.5000000E+00  0.0000000E+00  0.0000000E+00  0.1081845E+01  0.1081845E+01  0.1000000E+01  0.3000000E+00  0.0000000E+00  0.0000000E+00
  0.6000000E+00  0.0000000E+00  0.0000000E+00  0.1073636E+01  0.1073636E+01  0.1000000E+01  0.3000000E+00  0.0000000E+00  0.0000000E+00
  0.7000000E+00  0.0000000E+00  0.0000000E+00  0.1064142E+01  0.1064142E+01  0.1000000E+01  0.3000000E+00  0.0000000E+00  0.0000000E+00
  0.8000000E+00  0.0000000E+00  0.0000000E+00  0.1053451E+01  0.1053451E+01  0.1000000E+01  0.3000000E+00  0.0000000E+00  0.0000000E+00
  0.9000000E+00  0.0000000E+00  0.0000000E+00  0.1041657E+01  0.1041657E+01  0.1000000E+01  0.3000000E+00  0.0000000E+00  0.0000000E+00
  0.1000000E+01  0.0000000E+00  0.0000000E+00  0.1028857E+01  0.1028857E+01  0.1000000E+01  0.3000000E+00  0.0000000E+00  0.0000000E+00
  0.1100000E+01  0.0000000E+00  0.0000000E+00  0.1015143E+01  0.1015143E+01  0.1000000E+01  0.3000000E+00  0.0000000E+00  0.0000000E+00
  0.1200000E+01  0.0000000E+00  0.0000000E+00  0.1000605E+01  0.1000605E+01  0.1000000E+01  0.3000000E+00  0.0000000E+00  0.0000000E+00
  0.1300000E+01  0.0000000E+00  0.0000000E+00  0.9853278E+00  0.9853278E+00  0.1000000E+01  0.3000000E+00  0.0000000E+00  0.0000000E+00
  0.1400000E+01  0.0000000E+00  0.0000000E+00  0.9693859E+00  0.9693859E+00  0.1000000E+01  0.3000000E+00  0.0000000E+00  0.0000000E+00
  0.1500000E+01  0.0000000E+00  0.0000000E+00  0.9528462E+00  0.9528462E+00  0.1000000E+01  0.3000000E+00  0.0000000E+00  0.0000000E+00
  0.1600000E+01  0.0000000E+00  0.0000000E+00  0.9357656E+00  0.9357656E+00  0.1000000E+01  0.3000000E+00  0.0000000E+00  0.0000000E+00
  0.1700000E+01  0.0000000E+00  0.0000000E+00  0.9181906E+00  0.9181906E+00  0.1000000E+01  0.3000000E+00  0.0000000E+00  0.0000000E+00
  0.1800000E+01  0.0000000E+00  0.0000000E+00  0.9001572E+00  0.9001572E+00  0.1000000E+01  0.3000000E+00  0.0000000E+00  0.0000000E+00
  0.1900000E+01  0.0000000E+00  0.0000000E+00  0.8816907E+00  0.8816907E+00  0.1000000E+01  0.3000000E+00  0.0000000E+00  0.0000000E+00
  0.2000000E+01  0.0000000E+00  0.0000000E+00  0.8628062E+00  0.8628062E+00  0.1000000E+01  0.3000000E+00  0.0000000E+00  0.0000000E+00
  0.2100000E+01  0.0000000E+00  0.0000000E+00  0.8435083E+00  0.8435083E+00  0.1000000E+01  0.3000000E+00  0.0000000E+00  0.0000000E+00
  0.2200000E+01  0.0000000E+00  0.0000000E+00  0.8237921E+00  0.8237921E+00  0.1000000E+01  0.3000000E+00  0.0000000E+00  0.0000000E+00
  0.2300000E+01  0.0000000E+00  0.0000000E+00  0.8036439E+00  0.8036439E+00  0.1000000E+01  0.3000000E+00  0.0000000E+00  0.0000000E+00
  0.2400000E+01  0.0000000E+00  0.0000000E+00  0.7830440E+00  0.7830440E+00  0.1000000E+01  0.3000000E+00  0.0000000E+00  0.0000000E+00
  0.2500000E+01  0.0000000E+00  0.0000000E+00  0.7619707E+00  0.7619707E+00  0.1000000E+01  0.3000000E+00  0.0000000E+00  0.0000000E+00
  0.2600000E+01  0.0000000E+00  0.0000000E+00  0.7404089E+00  0.7404089E+00  0.1000000E+01  0.3000000E+00  0.0000000E+00  0.0000000E+00
  0.2700000E+01  0.0000000E+00  0.0000000E+00  0.7183629E+00  0.7183629E+00  0.1000000E+01  0.3000000E+00  0.0000000E+00  0.0000000E+00
  0.2800000E+01  0.0000000E+00  0.0000000E+00  0.6958733E+00  0.6958733E+00  0.1000000E+01  0.3000000E+00  0.0000000E+00  0.0000000E+00
  0.2900000E+01  0.0000000E+00  0.0000000E+00  0.6730344E+00  0.6730344E+00  0.1000000E+01  0.3000000E+00  0.0000000E+00  0.0000000E+00
  0.3000000E+01  0.0000000E+00  0.0000000E+00  0.6500000E+00  0.6500000E+00  0.1000000E+01  0.3000000E+00  0.0000000E+00  0.0000000E+00
  0.0000000E+00  0.0000000E+00  0.5000000E-01  0.1101333E+01  0.1051333E+01  0.1000000E+01  0.3000000E+00  0.0000000E+00  0.0000000E+00
  0.1000000E+00  0.0000000E+00  0.5000000E-01  0.1100543E+01  0.1050543E+01  0.1000000E+01  0.3000000E+00  0.0000000E+00  0.0000000E+00
  0.2000000E+00  0.0000000E+00  0.5000000E-01  0.1098181E+01  0.1048181E+01  0.1000000E+01  0.3000000E+00  0.0000000E+00  0.0000000E+00
  0.3000000E+00  0.0000000E+00  0.5000000E-01  0.1094274E+01  0.1044274E+01  0.1000000E+01  0.3000000E+00  0.0000000E+00  0.0000000E+00
  0.4000000E+00  0.0000000E+00  0.5000000E-01  0.1088866E+01  0.1038866E+01  0.1000000E+01  0.3000000E+00  0.0000000E+00  0.0000000E+00
  0.5000000E+00  0.0000000E+00  0.5000000E-01  0.1082016E+01  0.1032016E+01  0.1000000E+01  0.3000000E+00  0.0000000E+00  0.0000000E+00
  0.6000000E+00  0.0000000E+00  0.5000000E-01  0.1073797E+01  0.1023797E+01  0.1000000E+01  0.3000000E+00  0.0000000E+00  0.0000000E+00
  0.7000000E+00  0.0000000E+00  0.5000000E-01  0.1064291E+01  0.1014291E+01  0.1000000E+01  0.3000000E+00  0.0000000E+00  0.0000000E+00
  0.8000000E+00  0.0000000E+00  0.5000000E-01  0.1053588E+01  0.1003588E+01  0.1000000E+01  0.3000000E+00  0.0000000E+00  0.0000000E+00
  0.9000000E+00  0.0000000E+00  0.5000000E-01  0.1041783E+01  0.9917830E+00  0.1000000E+01  0.3000000E+00  0.0000000E+00  0.0000000E+00
  0.1000000E+01  0.0000000E+00  0.5000000E-01  0.1028971E+01  0.9789708E+00  0.1000000E+01  0.3000000E+00  0.0000000E+00  0.0000000E+00
  0.1100000E+01  0.0000000E+00  0.5000000E-01  0.1015246E+01  0.9652458E+00  0.1000000E+01  0.3000000E+00  0.0000000E+00  0.0000000E+00
  0.1200000E+01  0.0000000E+00  0.5000000E-01  0.1000698E+01  0.9506979E+00  0.1000000E+01  0.3000000E+00  0.0000000E+00  0.0000000E+00
  0.1300000E+01  0.0000000E+00  0.5000000E-01  0.9854109E+00  0.9354109E+00  0.1000000E+01  0.3000000E+00  0.0000000E+00  0.0000000E+00
  0.1400000E+01  0.0000000E+00  0.5000000E-01  0.9694606E+00  0.9194606E+00  0.1000000E+01  0.3000000E+00  0.0000000E+00  0.0000000E+00
  0.1500000E+01  0.0000000E+00  0.5000000E-01  0.9529138E+00  0.9029138E+00  0.1000000E+01  0.3000000E+00  0.0000000E+00  0.0000000E+00
  0.1600000E+01  0.0000000E+00  0.5000000E-01  0.9358274E+00  0.8858274E+00  0.1000000E+01  0.3000000E+00  0.0000000E+00  0.0000000E+00
  0.1700000E+01  0.0000000E+00  0.5000000E-01  0.9182479E+00  0.8682479E+00  0.1000000E+01  0.3000000E+00  0.0000000E+00  0.0000000E+00
  0.1800000E+01  0.0000000E+00  0.5000000E-01  0.9002113E+00  0.8502113E+00  0.1000000E+01  0.3000000E+00  0.0000000E+00  0.0000000E+00
  0.1900000E+01  0.0000000E+00  0.5000000E-01  0.8817430E+00  0.8317430E+00  0.1000000E+01  0.3000000E+00  0.0000000E+00  0.0000000E+00
  0.2000000E+01  0.0000000E+00  0.5000000E-01  0.8628579E+00  0.8128579E+00  0.1000000E+01  0.3000000E+00  0.0000000E+00  0.0000000E+00
  0.2100000E+01  0.0000000E+00  0.5000000E-01  0.8435606E+00  0.7935606E+00  0.1000000E+01  0.3000000E+00  0.0000000E+00  0.0000000E+00
  0.2200000E+01  0.0000000E+00  0.5000000E-01  0.8238461E+00  0.7738461E+00  0.1000000E+01  0.3000000E+00  0.0000000E+00  0.0000000E+00
  0.2300000E+01  0.0000000E+00  0.5000000E-01  0.8037004E+00  0.7537004E+00  0.1000000E+01  0.3000000E+00  0.0000000E+00  0.0000000E+00
  0.2400000E+01  0.0000000E+00  0.5000000E-01  0.7831032E+00  0.7331032E+00  0.1000000E+01  0.3000000E+00  0.0000000E+00  0.0000000E+00
  0.2500000E+01  0.0000000E+00  0.5000000E-01  0.7620317E+00  0.7120317E+00  0.1000000E+01  0.3000000E+00  0.0000000E+00  0.0000000E+00
  0.2600000E+01  0.0000000E+00  0.5000000E-01  0.7404694E+00  0.6904694E+00  0.1000000E+01  0.3000000E+00  0.0000000E+00  0.0000000E+00
  0.2700000E+01  0.0000000E+00  0.5000000E-01  0.7184183E+00  0.6684183E+00  0.1000000E+01  0.3000000E+00  0.0000000E+00  0.0000000E+00
  0.2800000E+01  0.0000000E+00  0.5000000E-01  0.6959170E+00  0.6459170E+00  0.1000000E+01  0.3000000E+00  0.0000000E+00  0.0000000E+00
  0.2900000E+01  0.0000000E+00  0.5000000E-01  0.6730589E+00  0.6230589E+00  0.1000000E+01  0.3000000E+00  0.0000000E+00  0.0000000E+00
  0.3000000E+01  0.0000000E+00  0.5000000E-01  0.6500000E+00  0.6000000E+00  0.1000000E+01  0.3000000E+00  0.0000000E+00  0.0000000E+00
  0.0000000E+00  0.0000000E+00  0.1000000E+00  0.1101926E+01  0.1001926E+01  0.1000000E+01  0.3000000E+00  0.0000000E+00  0.0000000E+00
  0.1000000E+00  0.0000000E+00  0.1000000E+00  0.1101132E+01  0.1001132E+01  0.1000000E+01  0.3000000E+00  0.0000000E+00  0.0000000E+00
  0.2000000E+00  0.0000000E+00  0.1000000E+00  0.1098760E+01  0.9987597E+00  0.1000000E+01  0.3000000E+00  0.0000000E+00  0.0000000E+00
  0.3000000E+00  0.0000000E+00  0.1000000E+00  0.1094836E+01  0.9948361E+00  0.1000000E+01  0.3000000E+00  0.0000000E+00  0.0000000E+00
  0.4000000E+00  0.0000000E+00  0.1000000E+00  0.1089406E+01  0.9894061E+00  0.1000000E+01  0.3000000E+00  0.0000000E+00  0.0000000E+00
  0.5000000E+00  0.0000000E+00  0.1000000E+00  0.1082529E+01  0.9825294E+00  0.1000000E+01  0.3000000E+00  0.0000000E+00  0.0000000E+00
  0.6000000E+00  0.0000000E+00  0.1000000E+00  0.1074279E+01  0.9742795E+00  0.1000000E+01  0.3000000E+00  0.0000000E+00  0.0000000E+00
  0.7000000E+00  0.0000000E+00  0.1000000E+00  0.1064740E+01  0.9647399E+00  0.1000000E+01  0.3000000E+00  0.0000000E+00  0.0000000E+00
  0.8000000E+00  0.0000000E+00  0.1000000E+00  0.1054002E+01  0.9540017E+00  0.1000000E+01  0.3000000E+00  0.0000000E+00  0.0000000E+00
  0.9000000E+00  0.0000000E+00  0.1000000E+00  0.1042161E+01  0.9421606E+00  0.1000000E+01  0.3000000E+00  0.0000000E+00  0.0000000E+00
  0.1000000E+01  0.0000000E+00  0.1000000E+00  0.1029313E+01  0.9293132E+00  0.1000000E+01  0.3000000E+00  0.0000000E+00  0.0000000E+00
  0.1100000E+01  0.0000000E+00  0.1000000E+00  0.1015554E+01  0.9155544E+00  0.1000000E+01  0.3000000E+00  0.0000000E+00  0.0000000E+00
  0.1200000E+01  0.0000000E+00  0.1000000E+00  0.1000975E+01  0.9009752E+00  0.1000000E+01  0.3000000E+00  0.0000000E+00  0.0000000E+00
  0.1300000E+01  0.0000000E+00  0.1000000E+00  0.9856597E+00  0.8856597E+00  0.1000000E+01  0.3000000E+00  0.0000000E+00  0.0000000E+00
  0.1400000E+01  0.0000000E+00  0.1000000E+00  0.9696844E+00  0.8696844E+00  0.1000000E+01  0.3000000E+00  0.0000000E+00  0.0000000E+00
  0.1500000E+01  0.0000000E+00  0.1000000E+00  0.9531163E+00  0.8531163E+00  0.1000000E+01  0.3000000E+00  0.0000000E+00  0.0000000E+00
  0.1600000E+01  0.0000000E+00  0.1000000E+00  0.9360125E+00  0.8360125E+00  0.1000000E+01  0.3000000E+00  0.0000000E+00  0.0000000E+00
  0.1700000E+01  0.0000000E+00  0.1000000E+00  0.9184195E+00  0.8184195E+00  0.1000000E+01  0.3000000E+00  0.0000000E+00  0.0000000E+00
  0.1800000E+01  0.0000000E+00  0.1000000E+00  0.9003734E+00  0.8003734E+00  0.1000000E+01  0.3000000E+00  0.0000000E+00  0.0000000E+00
  0.1900000E+01  0.0000000E+00  0.1000000E+00  0.8818995E+00  0.7818995E+00  0.1000000E+01  0.3000000E+00  0.0000000E+00  0.0000000E+00
  0.2000000E+01  0.0000000E+00  0.1000000E+00  0.8630126E+00  0.7630126E+00  0.1000000E+01  0.3000000E+00  0.0000000E+00  0.0000000E+00
  0.2100000E+01  0.0000000E+00  0.1000000E+00  0.8437172E+00  0.7437172E+00  0.1000000E+01  0.3000000E+00  0.0000000E+00  0.0000000E+00
  0.2200000E+01  0.0000000E+00  0.1000000E+00  0.8240079E+00  0.7240079E+00  0.1000000E+01  0.3000000E+00  0.0000000E+00  0.0000000E+00
  0.2300000E+01  0.0000000E+00  0.1000000E+00  0.8038698E+00  0.7038698E+00  0.1000000E+01  0.3000000E+00  0.0000000E+00  0.0000000E+00
  0.2400000E+01  0.0000000E+00  0.1000000E+00  0.7832809E+00  0.6832809E+00  0.1000000E+01  0.3000000E+00  0.0000000E+00  0.0000000E+00
  0.2500000E+01  0.0000000E+00  0.1000000E+00  0.7622155E+00  0.6622155E+00  0.1000000E+01  0.3000000E+00  0.0000000E+00  0.0000000E+00
  0.2600000E+01  0.0000000E+00  0.1000000E+00  0.7406522E+00  0.6406522E+00  0.1000000E+01  0.3000000E+00  0.0000000E+00  0.0000000E+00
  0.2700000E+01  0.0000000E+00  0.1000000E+00  0.7185863E+00  0.6185863E+00  0.1000000E+01  0.3000000E+00  0.0000000E+00  0.0000000E+00
  0.2800000E+01  0.0000000E+00  0.1000000E+00  0.6960498E+00  0.5960498E+00  0.1000000E+01  0.3000000E+00  0.0000000E+00  0.0000000E+00
  0.2900000E+01  0.0000000E+00  0.1000000E+00  0.6731335E+00  0.5731335E+00  0.1000000E+01  0.3000000E+00  0.0000000E+00  0.0000000E+00
  0.3000000E+01  0.0000000E+00  0.1000000E+00  0.6500000E+00  0.5500000E+00  0.1000000E+01  0.3000000E+00  0.0000000E+00  0.0000000E+00
  0.0000000E+00  0.0000000E+00  0.1500000E+00  0.1102916E+01  0.9529155E+00  0.1000000E+01  0.3000000E+00  0.0000000E+00  0.0000000E+00
  0.1000000E+00  0.0000000E+00  0.1500000E+00  0.1102116E+01  0.9521159E+00  0.1000000E+01  0.3000000E+00  0.0000000E+00  0.0000000E+00
  0.2000000E+00  0.0000000E+00  0.1500000E+00  0.1099726E+01  0.9497265E+00  0.1000000E+01  0.3000000E+00  0.0000000E+00  0.0000000E+00
  0.3000000E+00  0.0000000E+00  0.1500000E+00  0.1095775E+01  0.9457754E+00  0.1000000E+01  0.3000000E+00  0.0000000E+00  0.0000000E+00
  0.4000000E+00  0.0000000E+00  0.1500000E+00  0.1090308E+01  0.9403081E+00  0.1000000E+01  0.3000000E+00  0.0000000E+00  0.0000000E+00
  0.5000000E+00  0.0000000E+00  0.1500000E+00  0.1083386E+01  0.9333862E+00  0.1000000E+01  0.3000000E+00  0.0000000E+00  0.0000000E+00
  0.6000000E+00  0.0000000E+00  0.1500000E+00  0.1075084E+01  0.9250844E+00  0.1000000E+01  0.3000000E+00  0.0000000E+00  0.0000000E+00
  0.7000000E+00  0.0000000E+00  0.1500000E+00  0.1065488E+01  0.9154883E+00  0.1000000E+01  0.3000000E+00  0.0000000E+00  0.0000000E+00
  0.8000000E+00  0.0000000E+00  0.1500000E+00  0.1054691E+01  0.9046909E+00  0.1000000E+01  0.3000000E+00  0.0000000E+00  0.0000000E+00
  0.9000000E+00  0.0000000E+00  0.1500000E+00  0.1042790E+01  0.8927898E+00  0.1000000E+01  0.3000000E+00  0.0000000E+00  0.0000000E+00
  0.1000000E+01  0.0000000E+00  0.1500000E+00  0.1029883E+01  0.8798834E+00  0.1000000E+01  0.3000000E+00  0.0000000E+00  0.0000000E+00
  0.1100000E+01  0.0000000E+00  0.1500000E+00  0.1016068E+01  0.8660683E+00  0.1000000E+01  0.3000000E+00  0.0000000E+00  0.0000000E+00
  0.1200000E+01  0.0000000E+00  0.1500000E+00  0.1001437E+01  0.8514365E+00  0.1000000E+01  0.3000000E+00  0.0000000E+00  0.0000000E+00
  0.1300000E+01  0.0000000E+00  0.1500000E+00  0.9860736E+00  0.8360736E+00  0.1000000E+01  0.3000000E+00  0.0000000E+00  0.0000000E+00
  0.1400000E+01  0.0000000E+00  0.1500000E+00  0.9700565E+00  0.8200565E+00  0.1000000E+01  0.3000000E+00  0.0000000E+00  0.0000000E+00
  0.1500000E+01  0.0000000E+00  0.1500000E+00  0.9534528E+00  0.8034528E+00  0.1000000E+01  0.3000000E+00  0.0000000E+00  0.0000000E+00
  0.1600000E+01  0.0000000E+00  0.1500000E+00  0.9363199E+00  0.7863199E+00  0.1000000E+01  0.3000000E+00  0.0000000E+00  0.0000000E+00
  0.1700000E+01  0.0000000E+00  0.1500000E+00  0.9187044E+00  0.7687044E+00  0.1000000E+01  0.3000000E+00  0.0000000E+00  0.0000000E+00
  0.1800000E+01  0.0000000E+00  0.1500000E+00  0.9006424E+00  0.7506424E+00  0.1000000E+01  0.3000000E+00  0.0000000E+00  0.0000000E+00
  0.1900000E+01  0.0000000E+00  0.1500000E+00  0.8821592E+00  0.7321592E+00  0.1000000E+01  0.3000000E+00  0.0000000E+00  0.0000000E+00
  0.2000000E+01  0.0000000E+00  0.1500000E+00  0.8632694E+00  0.7132694E+00  0.1000000E+01  0.3000000E+00  0.0000000E+00  0.0000000E+00
  0.2100000E+01  0.0000000E+00  0.1500000E+00  0.8439774E+00  0.6939774E+00  0.1000000E+01  0.3000000E+00  0.0000000E+00  0.0000000E+00
  0.2200000E+01  0.0000000E+00  0.1500000E+00  0.8242768E+00  0.6742768E+00  0.1000000E+01  0.3000000E+00  0.0000000E+00  0.0000000E+00
  0.2300000E+01  0.0000000E+00  0.1500000E+00  0.8041519E+00  0.6541519E+00  0.1000000E+01  0.3000000E+00  0.0000000E+00  0.0000000E+00
  0.2400000E+01  0.0000000E+00  0.1500000E+00  0.7835777E+00  0.6335777E+00  0.1000000E+01  0.3000000E+00  0.0000000E+00  0.0000000E+00
  0.2500000E+01  0.0000000E+00  0.1500000E+00  0.7625238E+00  0.6125238E+00  0.1000000E+01  0.3000000E+00  0.0000000E+00  0.0000000E+00
  0.2600000E+01  0.0000000E+00  0.1500000E+00  0.7409606E+00  0.5909606E+00  0.1000000E+01  0.3000000E+00  0.0000000E+00  0.0000000E+00
  0.2700000E+01  0.0000000E+00  0.1500000E+00  0.7188719E+00  0.5688719E+00  0.1000000E+01  0.3000000E+00  0.0000000E+00  0.0000000E+00
  0.2800000E+01  0.0000000E+00  0.1500000E+00  0.6962776E+00  0.5462776E+00  0.1000000E+01  0.3000000E+00  0.0000000E+00  0.0000000E+00
  0.2900000E+01  0.0000000E+00  0.1500000E+00  0.6732625E+00  0.5232625E+00  0.1000000E+01  0.3000000E+00  0.0000000E+00  0.0000000E+00
  0.3000000E+01  0.0000000E+00  0.1500000E+00  0.6500000E+00  0.5000000E+00  0.1000000E+01  0.3000000E+00  0.0000000E+00  0.0000000E+00
  0.0000000E+00  0.0000000E+00  0.2000000E+00  0.1104305E+01  0.9043049E+00  0.1000000E+01  0.3000000E+00  0.0000000E+00  0.0000000E+00
  0.1000000E+00  0.0000000E+00  0.2000000E+00  0.1103497E+01  0.9034971E+00  0.1000000E+01  0.3000000E+00  0.0000000E+00  0.0000000E+00
  0.2000000E+00  0.0000000E+00  0.2000000E+00  0.1101084E+01  0.9010837E+00  0.1000000E+01  0.3000000E+00  0.0000000E+00  0.0000000E+00
  0.3000000E+00  0.0000000E+00  0.2000000E+00  0.1097094E+01  0.8970936E+00  0.1000000E+01  0.3000000E+00  0.0000000E+00  0.0000000E+00
  0.4000000E+00  0.0000000E+00  0.2000000E+00  0.1091574E+01  0.8915739E+00  0.1000000E+01  0.3000000E+00  0.0000000E+00  0.0000000E+00
  0.5000000E+00  0.0000000E+00  0.2000000E+00  0.1084588E+01  0.8845879E+00  0.1000000E+01  0.3000000E+00  0.0000000E+00  0.0000000E+00
  0.6000000E+00  0.0000000E+00  0.2000000E+00  0.1076213E+01  0.8762128E+00  0.1000000E+01  0.3000000E+00  0.0000000E+00  0.0000000E+00
  0.7000000E+00  0.0000000E+00  0.2000000E+00  0.1066537E+01  0.8665369E+00  0.1000000E+01  0.3000000E+00  0.0000000E+00  0.0000000E+00
  0.8000000E+00  0.0000000E+00  0.2000000E+00  0.1055656E+01  0.8556561E+00  0.1000000E+01  0.3000000E+00  0.0000000E+00  0.0000000E+00
  0.9000000E+00  0.0000000E+00  0.2000000E+00  0.1043670E+01  0.8436703E+00  0.1000000E+01  0.3000000E+00  0.0000000E+00  0.0000000E+00
  0.1000000E+01  0.0000000E+00  0.2000000E+00  0.1030681E+01  0.8306808E+00  0.1000000E+01  0.3000000E+00  0.0000000E+00  0.0000000E+00
  0.1100000E+01  0.0000000E+00  0.2000000E+00  0.1016786E+01  0.8167862E+00  0.1000000E+01  0.3000000E+00  0.0000000E+00  0.0000000E+00
  0.1200000E+01  0.0000000E+00  0.2000000E+00  0.1002081E+01  0.8020807E+00  0.1000000E+01  0.3000000E+00  0.0000000E+00  0.0000000E+00
  0.1300000E+01  0.0000000E+00  0.2000000E+00  0.9866510E+00  0.7866510E+00  0.1000000E+01  0.3000000E+00  0.0000000E+00  0.0000000E+00
  0.1400000E+01  0.0000000E+00  0.2000000E+00  0.9705752E+00  0.7705752E+00  0.1000000E+01  0.3000000E+00  0.0000000E+00  0.0000000E+00
  0.1500000E+01  0.0000000E+00  0.2000000E+00  0.9539216E+00  0.7539216E+00  0.1000000E+01  0.3000000E+00  0.0000000E+00  0.0000000E+00
  0.1600000E+01  0.0000000E+00  0.2000000E+00  0.9367479E+00  0.7367479E+00  0.1000000E+01  0.3000000E+00  0.0000000E+00  0.0000000E+00
  0.1700000E+01  0.0000000E+00  0.2000000E+00  0.9191009E+00  0.7191009E+00  0.1000000E+01  0.3000000E+00  0.0000000E+00  0.0000000E+00
  0.1800000E+01  0.0000000E+00  0.2000000E+00  0.9010167E+00  0.7010167E+00  0.1000000E+01  0.3000000E+00  0.0000000E+00  0.0000000E+00
  0.1900000E+01  0.0000000E+00  0.2000000E+00  0.8825205E+00  0.6825205E+00  0.1000000E+01  0.3000000E+00  0.0000000E+00  0.0000000E+00
  0.2000000E+01  0.0000000E+00  0.2000000E+00  0.8636268E+00  0.6636268E+00  0.1000000E+01  0.3000000E+00  0.0000000E+00  0.0000000E+00
  0.2100000E+01  0.0000000E+00  0.2000000E+00  0.8443396E+00  0.6443396E+00  0.1000000E+01  0.3000000E+00  0.0000000E+00  0.0000000E+00
  0.2200000E+01  0.0000000E+00  0.2000000E+00  0.8246519E+00  0.6246519E+00  0.1000000E+01  0.3000000E+00  0.0000000E+00  0.0000000E+00
  0.2300000E+01  0.0000000E+00  0.2000000E+00  0.8045462E+00  0.6045462E+00  0.1000000E+01  0.3000000E+00  0.0000000E+00  0.0000000E+00
  0.2400000E+01  0.0000000E+00  0.2000000E+00  0.7839944E+00  0.5839944E+00  0.1000000E+01  0.3000000E+00  0.0000000E+00  0.0000000E+00
  0.2500000E+01  0.0000000E+00  0.2000000E+00  0.7629594E+00  0.5629594E+00  0.1000000E+01  0.3000000E+00  0.0000000E+00  0.0000000E+00
  0.2600000E+01  0.0000000E+00  0.2000000E+00  0.7414003E+00  0.5414003E+00  0.1000000E+01  0.3000000E+00  0.0000000E+00  0.0000000E+00
  0.2700000E+01  0.0000000E+00  0.2000000E+00  0.7192840E+00  0.5192840E+00  0.1000000E+01  0.3000000E+00  0.0000000E+00  0.0000000E+00
  0.2800000E+01  0.0000000E+00  0.2000000E+00  0.6966106E+00  0.4966106E+00  0.1000000E+01  0.3000000E+00  0.0000000E+00  0.0000000E+00
  0.2900000E+01  0.0000000E+00  0.2000000E+00  0.6734532E+00  0.4734532E+00  0.1000000E+01  0.3000000E+00  0.0000000E+00  0.0000000E+00
  0.3000000E+01  0.0000000E+00  0.2000000E+00  0.6500000E+00  0.4500000E+00  0.1000000E+01  0.3000000E+00  0.0000000E+00  0.0000000E+00
  0.0000000E+00  0.0000000E+00  0.2500000E+00  0.1106098E+01  0.8560981E+00  0.1000000E+01  0.3000000E+00  0.0000000E+00  0.0000000E+00
  0.1000000E+00  0.0000000E+00  0.2500000E+00  0.1105280E+01  0.8552798E+00  0.1000000E+01  0.3000000E+00  0.0000000E+00  0.0000000E+00
  0.2000000E+00  0.0000000E+00  0.2500000E+00  0.1102835E+01  0.8528351E+00  0.1000000E+01  0.3000000E+00  0.0000000E+00  0.0000000E+00
  0.3000000E+00  0.0000000E+00  0.2500000E+00  0.1098794E+01  0.8487943E+00  0.1000000E+01  0.3000000E+00  0.0000000E+00  0.0000000E+00
  0.4000000E+00  0.0000000E+00  0.2500000E+00  0.1093206E+01  0.8432062E+00  0.1000000E+01  0.3000000E+00  0.0000000E+00  0.0000000E+00
  0.5000000E+00  0.0000000E+00  0.2500000E+00  0.1086137E+01  0.8361368E+00  0.1000000E+01  0.3000000E+00  0.0000000E+00  0.0000000E+00
  0.6000000E+00  0.0000000E+00  0.2500000E+00  0.1077667E+01  0.8276665E+00  0.1000000E+01  0.3000000E+00  0.0000000E+00  0.0000000E+00
  0.7000000E+00  0.0000000E+00  0.2500000E+00  0.1067887E+01  0.8178869E+00  0.1000000E+01  0.3000000E+00  0.0000000E+00  0.0000000E+00
  0.8000000E+00  0.0000000E+00  0.2500000E+00  0.1056897E+01  0.8068974E+00  0.1000000E+01  0.3000000E+00  0.0000000E+00  0.0000000E+00
  0.9000000E+00  0.0000000E+00  0.2500000E+00  0.1044802E+01  0.7948018E+00  0.1000000E+01  0.3000000E+00  0.0000000E+00  0.0000000E+00
  0.1000000E+01  0.0000000E+00  0.2500000E+00  0.1031704E+01  0.7817044E+00  0.1000000E+01  0.3000000E+00  0.0000000E+00  0.0000000E+00
  0.1100000E+01  0.0000000E+00  0.2500000E+00  0.1017707E+01  0.7677070E+00  0.1000000E+01  0.3000000E+00  0.0000000E+00  0.0000000E+00
  0.1200000E+01  0.0000000E+00  0.2500000E+00  0.1002906E+01  0.7529059E+00  0.1000000E+01  0.3000000E+00  0.0000000E+00  0.0000000E+00
  0.1300000E+01  0.0000000E+00  0.2500000E+00  0.9873899E+00  0.7373899E+00  0.1000000E+01  0.3000000E+00  0.0000000E+00  0.0000000E+00
  0.1400000E+01  0.0000000E+00  0.2500000E+00  0.9712383E+00  0.7212383E+00  0.1000000E+01  0.3000000E+00  0.0000000E+00  0.0000000E+00
  0.1500000E+01  0.0000000E+00  0.2500000E+00  0.9545204E+00  0.7045204E+00  0.1000000E+01  0.3000000E+00  0.0000000E+00  0.0000000E+00
  0.1600000E+01  0.0000000E+00  0.2500000E+00  0.9372942E+00  0.6872942E+00  0.1000000E+01  0.3000000E+00  0.0000000E+00  0.0000000E+00
  0.1700000E+01  0.0000000E+00  0.2500000E+00  0.9196067E+00  0.6696067E+00  0.1000000E+01  0.3000000E+00  0.0000000E+00  0.0000000E+00
  0.1800000E+01  0.0000000E+00  0.2500000E+00  0.9014940E+00  0.6514940E+00  0.1000000E+01  0.3000000E+00  0.0000000E+00  0.0000000E+00
  0.1900000E+01  0.0000000E+00  0.2500000E+00  0.8829812E+00  0.6329812E+00  0.1000000E+01  0.3000000E+00  0.0000000E+00  0.0000000E+00
  0.2000000E+01  0.0000000E+00  0.2500000E+00  0.8640826E+00  0.6140826E+00  0.1000000E+01  0.3000000E+00  0.0000000E+00  0.0000000E+00
  0.2100000E+01  0.0000000E+00  0.2500000E+00  0.8448019E+00  0.5948019E+00  0.1000000E+01  0.3000000E+00  0.0000000E+00  0.0000000E+00
  0.2200000E+01  0.0000000E+00  0.2500000E+00  0.8251315E+00  0.5751315E+00  0.1000000E+01  0.3000000E+00  0.0000000E+00  0.0000000E+00
  0.2300000E+01  0.0000000E+00  0.2500000E+00  0.8050522E+00  0.5550522E+00  0.1000000E+01  0.3000000E+00  0.0000000E+00  0.0000000E+00
  0.2400000E+01  0.0000000E+00  0.2500000E+00  0.7845320E+00  0.5345320E+00  0.1000000E+01  0.3000000E+00  0.0000000E+00  0.0000000E+00
  0.2500000E+01  0.0000000E+00  0.2500000E+00  0.7635261E+00  0.5135261E+00  0.1000000E+01  0.3000000E+00  0.0000000E+00  0.0000000E+00
  0.2600000E+01  0.0000000E+00  0.2500000E+00  0.7419793E+00  0.4919793E+00  0.1000000E+01  0.3000000E+00  0.0000000E+00  0.0000000E+00
  0.2700000E+01  0.0000000E+00  0.2500000E+00  0.7198353E+00  0.4698353E+00  0.1000000E+01  0.3000000E+00  0.0000000E+00  0.0000000E+00
  0.2800000E+01  0.0000000E+00  0.2500000E+00  0.6970646E+00  0.4470646E+00  0.1000000E+01  0.3000000E+00  0.0000000E+00  0.0000000E+00
  0.2900000E+01  0.0000000E+00  0.2500000E+00  0.6737180E+00  0.4237180E+00  0.1000000E+01  0.3000000E+00  0.0000000E+00  0.0000000E+00
  0.3000000E+01  0.0000000E+00  0.2500000E+00  0.6500000E+00  0.4000000E+00  0.1000000E+01  0.3000000E+00  0.0000000E+00  0.0000000E+00
  0.0000000E+00  0.0000000E+00  0.3000000E+00  0.1108300E+01  0.8083004E+00  0.1000000E+01  0.3000000E+00  0.0000000E+00  0.0000000E+00
  0.1000000E+00  0.0000000E+00  0.3000000E+00  0.1107469E+01  0.8074691E+00  0.1000000E+01  0.3000000E+00  0.0000000E+00  0.0000000E+00
  0.2000000E+00  0.0000000E+00  0.3000000E+00  0.1104986E+01  0.8049856E+00  0.1000000E+01  0.3000000E+00  0.0000000E+00  0.0000000E+00
  0.3000000E+00  0.0000000E+00  0.3000000E+00  0.1100882E+01  0.8008818E+00  0.1000000E+01  0.3000000E+00  0.0000000E+00  0.0000000E+00
  0.4000000E+00  0.0000000E+00  0.3000000E+00  0.1095209E+01  0.7952088E+00  0.1000000E+01  0.3000000E+00  0.0000000E+00  0.0000000E+00
  0.5000000E+00  0.0000000E+00  0.3000000E+00  0.1088036E+01  0.7880360E+00  0.1000000E+01  0.3000000E+00  0.0000000E+00  0.0000000E+00
  0.6000000E+00  0.0000000E+00  0.3000000E+00  0.1079448E+01  0.7794476E+00  0.1000000E+01  0.3000000E+00  0.0000000E+00  0.0000000E+00
  0.7000000E+00  0.0000000E+00  0.3000000E+00  0.1069539E+01  0.7695393E+00  0.1000000E+01  0.3000000E+00  0.0000000E+00  0.0000000E+00
  0.8000000E+00  0.0000000E+00  0.3000000E+00  0.1058415E+01  0.7584153E+00  0.1000000E+01  0.3000000E+00  0.0000000E+00  0.0000000E+00
  0.9000000E+00  0.0000000E+00  0.3000000E+00  0.1046184E+01  0.7461837E+00  0.1000000E+01  0.3000000E+00  0.0000000E+00  0.0000000E+00
  0.1000000E+01  0.0000000E+00  0.3000000E+00  0.1032953E+01  0.7329530E+00  0.1000000E+01  0.3000000E+00  0.0000000E+00  0.0000000E+00
  0.1100000E+01  0.0000000E+00  0.3000000E+00  0.1018829E+01  0.7188286E+00  0.1000000E+01  0.3000000E+00  0.0000000E+00  0.0000000E+00
  0.1200000E+01  0.0000000E+00  0.3000000E+00  0.1003910E+01  0.7039098E+00  0.1000000E+01  0.3000000E+00  0.0000000E+00  0.0000000E+00
  0.1300000E+01  0.0000000E+00  0.3000000E+00  0.9882876E+00  0.6882876E+00  0.1000000E+01  0.3000000E+00  0.0000000E+00  0.0000000E+00
  0.1400000E+01  0.0000000E+00  0.3000000E+00  0.9720431E+00  0.6720431E+00  0.1000000E+01  0.3000000E+00  0.0000000E+00  0.0000000E+00
  0.1500000E+01  0.0000000E+00  0.3000000E+00  0.9552463E+00  0.6552463E+00  0.1000000E+01  0.3000000E+00  0.0000000E+00  0.0000000E+00
  0.1600000E+01  0.0000000E+00  0.3000000E+00  0.9379558E+00  0.6379558E+00  0.1000000E+01  0.3000000E+00  0.0000000E+00  0.0000000E+00
  0.1700000E+01  0.0000000E+00  0.3000000E+00  0.9202188E+00  0.6202188E+00  0.1000000E+01  0.3000000E+00  0.0000000E+00  0.0000000E+00
  0.1800000E+01  0.0000000E+00  0.3000000E+00  0.9020714E+00  0.6020714E+00  0.1000000E+01  0.3000000E+00  0.0000000E+00  0.0000000E+00
  0.1900000E+01  0.0000000E+00  0.3000000E+00  0.8835383E+00  0.5835383E+00  0.1000000E+01  0.3000000E+00  0.0000000E+00  0.0000000E+00
  0.2000000E+01  0.0000000E+00  0.3000000E+00  0.8646340E+00  0.5646340E+00  0.1000000E+01  0.3000000E+00  0.0000000E+00  0.0000000E+00
  0.2100000E+01  0.0000000E+00  0.3000000E+00  0.8453617E+00  0.5453617E+00  0.1000000E+01  0.3000000E+00  0.0000000E+00  0.0000000E+00
  0.2200000E+01  0.0000000E+00  0.3000000E+00  0.8257133E+00  0.5257133E+00  0.1000000E+01  0.3000000E+00  0.0000000E+00  0.0000000E+00
  0.2300000E+01  0.0000000E+00  0.3000000E+00  0.8056683E+00  0.5056683E+00  0.1000000E+01  0.3000000E+00  0.0000000E+00  0.0000000E+00
  0.2400000E+01  0.0000000E+00  0.3000000E+00  0.7851909E+00  0.4851909E+00  0.1000000E+01  0.3000000E+00  0.0000000E+00  0.0000000E+00
  0.2500000E+01  0.0000000E+00  0.3000000E+00  0.7642281E+00  0.4642281E+00  0.1000000E+01  0.3000000E+00  0.0000000E+00  0.0000000E+00
  0.2600000E+01  0.0000000E+00  0.3000000E+00  0.7427075E+00  0.4427075E+00  0.1000000E+01  0.3000000E+00  0.0000000E+00  0.0000000E+00
  0.2700000E+01  0.0000000E+00  0.3000000E+00  0.7205434E+00  0.4205434E+00  0.1000000E+01  0.3000000E+00  0.0000000E+00  0.0000000E+00
  0.2800000E+01  0.0000000E+00  0.3000000E+00  0.6976625E+00  0.3976625E+00  0.1000000E+01  0.3000000E+00  0.0000000E+00  0.0000000E+00
  0.2900000E+01  0.0000000E+00  0.3000000E+00  0.6740756E+00  0.3740756E+00  0.1000000E+01  0.3000000E+00  0.0000000E+00  0.0000000E+00
  0.3000000E+01  0.0000000E+00  0.3000000E+00  0.6500000E+00  0.3500000E+00  0.1000000E+01  0.3000000E+00  0.0000000E+00  0.0000000E+00