title = "dataset amd_ex"
variables = "x","y","z","pH","pe","Eh","ionic strength","C-Alk [eq/L]","NC-Alk [eq/L]","Alk [eq/L]","C-Alk [mg/L CaCO_3]","NC-Alk [mg/L CACO_3]","Alk [mg/L CaCO_3]","temperature"
zone t = "Master variables, T =  1.000E+01 years", i =  101, j =    1, k =    1,  f=point
  0.0000000E+00  0.0000000E+00  0.5000000E+01  0.6418340E+01 -0.1840495E+01 -0.1085892E+03  0.4846571E-01  0.6411078E-02 -0.4464336E-06  0.6410632E-02  0.3208405E+03 -0.2234163E-01  0.3208182E+03  0.2500000E+02
  0.0000000E+00  0.0000000E+00  0.4950000E+01  0.6417717E+01 -0.1839779E+01 -0.1085469E+03  0.4848371E-01  0.6421265E-02 -0.4470817E-06  0.6420818E-02  0.3213503E+03 -0.2237407E-01  0.3213279E+03  0.2500000E+02
  0.0000000E+00  0.0000000E+00  0.4900000E+01  0.6416032E+01 -0.1837840E+01 -0.1084326E+03  0.4853231E-01  0.6448883E-02 -0.4488405E-06  0.6448434E-02  0.3227324E+03 -0.2246209E-01  0.3227100E+03  0.2500000E+02
  0.0000000E+00  0.0000000E+00  0.4850000E+01  0.6413568E+01 -0.1835006E+01 -0.1082654E+03  0.4860296E-01  0.6489374E-02 -0.4514245E-06  0.6488922E-02  0.3247588E+03 -0.2259140E-01  0.3247362E+03  0.2500000E+02
  0.0000000E+00  0.0000000E+00  0.4800000E+01  0.6410478E+01 -0.1831454E+01 -0.1080558E+03  0.4869066E-01  0.6540303E-02 -0.4546857E-06  0.6539849E-02  0.3273075E+03 -0.2275461E-01  0.3272848E+03  0.2500000E+02
  0.0000000E+00  0.0000000E+00  0.4750000E+01  0.6406834E+01 -0.1827266E+01 -0.1078087E+03  0.4879263E-01  0.6600542E-02 -0.4585610E-06  0.6600083E-02  0.3303221E+03 -0.2294855E-01  0.3302992E+03  0.2500000E+02
  0.0000000E+00  0.0000000E+00  0.4700000E+01  0.6402659E+01 -0.1822470E+01 -0.1075258E+03  0.4890737E-01  0.6669769E-02 -0.4630402E-06  0.6669306E-02  0.3337866E+03 -0.2317271E-01  0.3337634E+03  0.2500000E+02
  0.0000000E+00  0.0000000E+00  0.4650000E+01  0.6397947E+01 -0.1817060E+01 -0.1072066E+03  0.4903422E-01  0.6748177E-02 -0.4681475E-06  0.6747709E-02  0.3377105E+03 -0.2342830E-01  0.3376871E+03  0.2500000E+02
  0.0000000E+00  0.0000000E+00  0.4600000E+01  0.6392673E+01 -0.1811007E+01 -0.1068494E+03  0.4917297E-01  0.6836295E-02 -0.4739303E-06  0.6835821E-02  0.3421203E+03 -0.2371770E-01  0.3420966E+03  0.2500000E+02
  0.0000000E+00  0.0000000E+00  0.4550000E+01  0.6386799E+01 -0.1804272E+01 -0.1064520E+03  0.4932372E-01  0.6934873E-02 -0.4804519E-06  0.6934392E-02  0.3470536E+03 -0.2404407E-01  0.3470296E+03  0.2500000E+02
  0.0000000E+00  0.0000000E+00  0.4500000E+01  0.6380285E+01 -0.1796806E+01 -0.1060116E+03  0.4948671E-01  0.7044818E-02 -0.4877875E-06  0.7044330E-02  0.3525558E+03 -0.2441118E-01  0.3525314E+03  0.2500000E+02
  0.0000000E+00  0.0000000E+00  0.4450000E+01  0.6373087E+01 -0.1788562E+01 -0.1055252E+03  0.4966232E-01  0.7167142E-02 -0.4960209E-06  0.7166646E-02  0.3586775E+03 -0.2482322E-01  0.3586527E+03  0.2500000E+02
  0.0000000E+00  0.0000000E+00  0.4400000E+01  0.6365163E+01 -0.1779494E+01 -0.1049901E+03  0.4985095E-01  0.7302929E-02 -0.5052427E-06  0.7302423E-02  0.3654729E+03 -0.2528472E-01  0.3654476E+03  0.2500000E+02
  0.0000000E+00  0.0000000E+00  0.4350000E+01  0.6356476E+01 -0.1769557E+01 -0.1044039E+03  0.5005304E-01  0.7453298E-02 -0.5155478E-06  0.7452783E-02  0.3729981E+03 -0.2580043E-01  0.3729723E+03  0.2500000E+02
  0.0000000E+00  0.0000000E+00  0.4300000E+01  0.6346994E+01 -0.1758717E+01 -0.1037643E+03  0.5026902E-01  0.7619381E-02 -0.5270338E-06  0.7618854E-02  0.3813097E+03 -0.2637525E-01  0.3812833E+03  0.2500000E+02
  0.0000000E+00  0.0000000E+00  0.4250000E+01  0.6336693E+01 -0.1746949E+01 -0.1030700E+03  0.5049931E-01  0.7802288E-02 -0.5397994E-06  0.7801748E-02  0.3904632E+03 -0.2701410E-01  0.3904362E+03  0.2500000E+02
  0.0000000E+00  0.0000000E+00  0.4200000E+01  0.6325559E+01 -0.1734237E+01 -0.1023200E+03  0.5074430E-01  0.8003077E-02 -0.5539417E-06  0.8002523E-02  0.4005116E+03 -0.2772185E-01  0.4004839E+03  0.2500000E+02
  0.0000000E+00  0.0000000E+00  0.4150000E+01  0.6313592E+01 -0.1720581E+01 -0.1015143E+03  0.5100432E-01  0.8222721E-02 -0.5695545E-06  0.8222152E-02  0.4115036E+03 -0.2850319E-01  0.4114751E+03  0.2500000E+02
  0.0000000E+00  0.0000000E+00  0.4100000E+01  0.6300802E+01 -0.1705993E+01 -0.1006536E+03  0.5127964E-01  0.8462077E-02 -0.5867260E-06  0.8461491E-02  0.4234821E+03 -0.2936253E-01  0.4234528E+03  0.2500000E+02
  0.0000000E+00  0.0000000E+00  0.4050000E+01  0.6287213E+01 -0.1690503E+01 -0.9973965E+02  0.5157046E-01  0.8721851E-02 -0.6055360E-06  0.8721245E-02  0.4364824E+03 -0.3030387E-01  0.4364521E+03  0.2500000E+02
  0.0000000E+00  0.0000000E+00  0.4000000E+01  0.6272861E+01 -0.1674151E+01 -0.9877492E+02  0.5187694E-01  0.9002555E-02 -0.6260548E-06  0.9001929E-02  0.4505302E+03 -0.3133072E-01  0.4504988E+03  0.2500000E+02
  0.0000000E+00  0.0000000E+00  0.3950000E+01  0.6257784E+01 -0.1656976E+01 -0.9776161E+02  0.5220035E-01  0.9304315E-02 -0.6483603E-06  0.9303667E-02  0.4656317E+03 -0.3244700E-01  0.4655992E+03  0.2500000E+02
  0.0000000E+00  0.0000000E+00  0.3900000E+01  0.6241666E+01 -0.1638504E+01 -0.9667171E+02  0.5255902E-01  0.9621832E-02 -0.6730876E-06  0.9621159E-02  0.4815217E+03 -0.3368447E-01  0.4814880E+03  0.2500000E+02
  0.0000000E+00  0.0000000E+00  0.3850000E+01  0.6212862E+01 -0.1601327E+01 -0.9447830E+02  0.5314914E-01  0.9776144E-02 -0.7195648E-06  0.9775424E-02  0.4892442E+03 -0.3601040E-01  0.4892082E+03  0.2500000E+02
  0.0000000E+00  0.0000000E+00  0.3800000E+01  0.5749902E+01 -0.9992230E+00 -0.5895416E+02  0.5400176E-01  0.4518478E-02 -0.2092262E-05  0.4516386E-02  0.2261259E+03 -0.1047066E+00  0.2260212E+03  0.2500000E+02
  0.0000000E+00  0.0000000E+00  0.3750000E+01  0.5167477E+01 -0.2405911E+00 -0.1419487E+02  0.8482766E-01  0.1421950E-02 -0.8153331E-05  0.1413796E-02  0.7116105E+02 -0.4080310E+00  0.7075302E+02  0.2500000E+02
  0.0000000E+00  0.0000000E+00  0.3700000E+01  0.5045275E+01 -0.7510333E-01 -0.4431097E+01  0.1155687E+00  0.1183948E-02 -0.1097751E-04  0.1172971E-02  0.5925034E+02 -0.5493663E+00  0.5870098E+02  0.2500000E+02
  0.0000000E+00  0.0000000E+00  0.3650000E+01  0.4978642E+01  0.1521430E-01  0.8976436E+00  0.1408381E+00  0.1108740E-02 -0.1293082E-04  0.1095809E-02  0.5548656E+02 -0.6471191E+00  0.5483944E+02  0.2500000E+02
  0.0000000E+00  0.0000000E+00  0.3600000E+01  0.4931385E+01  0.7849038E-01  0.4630932E+01  0.1617241E+00  0.1079906E-02 -0.1452152E-04  0.1065384E-02  0.5404356E+02 -0.7267250E+00  0.5331683E+02  0.2500000E+02
  0.0000000E+00  0.0000000E+00  0.3550000E+01  0.4894128E+01  0.1276535E+00  0.7531553E+01  0.1790760E+00  0.1072398E-02 -0.1590588E-04  0.1056492E-02  0.5366782E+02 -0.7960052E+00  0.5287182E+02  0.2500000E+02
  0.0000000E+00  0.0000000E+00  0.3500000E+01  0.4863029E+01  0.1680847E+00  0.9916998E+01  0.1934987E+00  0.1077004E-02 -0.1715465E-04  0.1059849E-02  0.5389835E+02 -0.8584994E+00  0.5303985E+02  0.2500000E+02
  0.0000000E+00  0.0000000E+00  0.3450000E+01  0.4836146E+01  0.2025379E+00  0.1194973E+02  0.2054693E+00  0.1089367E-02 -0.1830594E-04  0.1071061E-02  0.5451705E+02 -0.9161153E+00  0.5360093E+02  0.2500000E+02
  0.0000000E+00  0.0000000E+00  0.3400000E+01  0.4812363E+01  0.2326124E+00  0.1372413E+02  0.2153849E+00  0.1107055E-02 -0.1938252E-04  0.1087672E-02  0.5540223E+02 -0.9699926E+00  0.5443223E+02  0.2500000E+02
  0.0000000E+00  0.0000000E+00  0.3350000E+01  0.4790986E+01  0.2593158E+00  0.1529963E+02  0.2235805E+00  0.1128540E-02 -0.2039878E-04  0.1108141E-02  0.5647745E+02 -0.1020851E+01  0.5545660E+02  0.2500000E+02
  0.0000000E+00  0.0000000E+00  0.3300000E+01  0.4771558E+01  0.2833171E+00  0.1671571E+02  0.2303377E+00  0.1152774E-02 -0.2136391E-04  0.1131410E-02  0.5769023E+02 -0.1069150E+01  0.5662108E+02  0.2500000E+02
  0.0000000E+00  0.0000000E+00  0.3250000E+01  0.4753768E+01  0.3050779E+00  0.1799959E+02  0.2358931E+00  0.1178983E-02 -0.2228375E-04  0.1156700E-02  0.5900187E+02 -0.1115184E+01  0.5788669E+02  0.2500000E+02
  0.0000000E+00  0.0000000E+00  0.3200000E+01  0.4737397E+01  0.3249263E+00  0.1917065E+02  0.2404445E+00  0.1206566E-02 -0.2316185E-04  0.1183404E-02  0.6038222E+02 -0.1159128E+01  0.5922309E+02  0.2500000E+02
  0.0000000E+00  0.0000000E+00  0.3150000E+01  0.4722287E+01  0.3431033E+00  0.2024310E+02  0.2441568E+00  0.1235028E-02 -0.2400023E-04  0.1211028E-02  0.6180662E+02 -0.1201084E+01  0.6060553E+02  0.2500000E+02
  0.0000000E+00  0.0000000E+00  0.3100000E+01  0.4708318E+01  0.3597891E+00  0.2122756E+02  0.2471679E+00  0.1263960E-02 -0.2479985E-04  0.1239160E-02  0.6325449E+02 -0.1241101E+01  0.6201339E+02  0.2500000E+02
  0.0000000E+00  0.0000000E+00  0.3050000E+01  0.4695398E+01  0.3751263E+00  0.2213245E+02  0.2495930E+00  0.1293003E-02 -0.2556112E-04  0.1267442E-02  0.6470795E+02 -0.1279199E+01  0.6342875E+02  0.2500000E+02
  0.0000000E+00  0.0000000E+00  0.3000000E+01  0.4683451E+01  0.3892302E+00  0.2296458E+02  0.2515279E+00  0.1321845E-02 -0.2628420E-04  0.1295561E-02  0.6615133E+02 -0.1315385E+01  0.6483594E+02  0.2500000E+02
  0.0000000E+00  0.0000000E+00  0.2950000E+01  0.4672400E+01  0.4022088E+00  0.2373032E+02  0.2530522E+00  0.1350168E-02 -0.2696971E-04  0.1323199E-02  0.6756877E+02 -0.1349691E+01  0.6621908E+02  0.2500000E+02
  0.0000000E+00  0.0000000E+00  0.2900000E+01  0.4662067E+01  0.4142845E+00  0.2444278E+02  0.2542284E+00  0.1377228E-02 -0.2762552E-04  0.1349602E-02  0.6892295E+02 -0.1382511E+01  0.6754044E+02  0.2500000E+02
  0.0000000E+00  0.0000000E+00  0.2850000E+01  0.4651822E+01  0.4261739E+00  0.2514426E+02  0.2550682E+00  0.1399747E-02 -0.2828958E-04  0.1371458E-02  0.7004993E+02 -0.1415744E+01  0.6863418E+02  0.2500000E+02
  0.0000000E+00  0.0000000E+00  0.2800000E+01  0.4642879E+01  0.4364090E+00  0.2574813E+02  0.2553604E+00  0.1414478E-02 -0.2887952E-04  0.1385598E-02  0.7078710E+02 -0.1445267E+01  0.6934184E+02  0.2500000E+02
  0.0000000E+00  0.0000000E+00  0.2750000E+01  0.4515765E+01  0.5814442E+00  0.3430521E+02  0.2546390E+00  0.1079874E-02 -0.3869529E-04  0.1041179E-02  0.5404196E+02 -0.1936494E+01  0.5210547E+02  0.2500000E+02
  0.0000000E+00  0.0000000E+00  0.2700000E+01  0.4033701E+01  0.1125113E+01  0.6638167E+02  0.2377258E+00  0.2628115E-03 -0.1170708E-03  0.1457407E-03  0.1315232E+02 -0.5858771E+01  0.7293551E+01  0.2500000E+02
  0.0000000E+00  0.0000000E+00  0.2650000E+01  0.3946335E+01  0.1218710E+01  0.7190390E+02  0.2249191E+00  0.1568884E-03 -0.1427748E-03  0.1411359E-04  0.7851434E+01 -0.7145124E+01  0.7063106E+00  0.2500000E+02
  0.0000000E+00  0.0000000E+00  0.2600000E+01  0.3898533E+01  0.1267751E+01  0.7479729E+02  0.2147262E+00  0.1006248E-03 -0.1590192E-03 -0.5839436E-04  0.5035738E+01 -0.7958066E+01 -0.2922328E+01  0.2500000E+02
  0.0000000E+00  0.0000000E+00  0.2550000E+01  0.3867147E+01  0.1298618E+01  0.7661846E+02  0.2065954E+00  0.6505645E-04 -0.1706054E-03 -0.1055490E-03  0.3255730E+01 -0.8537897E+01 -0.5282166E+01  0.2500000E+02
  0.0000000E+00  0.0000000E+00  0.2500000E+01  0.3845211E+01  0.1319287E+01  0.7783796E+02  0.2001617E+00  0.4129023E-04 -0.1791584E-03 -0.1378681E-03  0.2066357E+01 -0.8965927E+01 -0.6899570E+01  0.2500000E+02
  0.0000000E+00  0.0000000E+00  0.2450000E+01  0.3829321E+01  0.1333618E+01  0.7868346E+02  0.1950594E+00  0.2492846E-04 -0.1855935E-03 -0.1606651E-03  0.1247537E+01 -0.9287972E+01 -0.8040435E+01  0.2500000E+02
  0.0000000E+00  0.0000000E+00  0.2400000E+01  0.3817300E+01  0.1344000E+01  0.7929603E+02  0.1909332E+00  0.1358487E-04 -0.1905972E-03 -0.1770123E-03  0.6798508E+00 -0.9538379E+01 -0.8858528E+01  0.2500000E+02
  0.0000000E+00  0.0000000E+00  0.2350000E+01  0.3808158E+01  0.1351552E+01  0.7974160E+02  0.1876063E+00  0.7659563E-05 -0.1944792E-03 -0.1868197E-03  0.3833205E+00 -0.9732656E+01 -0.9349335E+01  0.2500000E+02
  0.0000000E+00  0.0000000E+00  0.2300000E+01  0.3801517E+01  0.1356768E+01  0.8004934E+02  0.1850187E+00  0.5407893E-05 -0.1973381E-03 -0.1919302E-03  0.2706364E+00 -0.9875725E+01 -0.9605089E+01  0.2500000E+02
  0.0000000E+00  0.0000000E+00  0.2250000E+01  0.3796783E+01  0.1360342E+01  0.8026019E+02  0.1830870E+00  0.4436205E-05 -0.1993953E-03 -0.1949591E-03  0.2220086E+00 -0.9978680E+01 -0.9756671E+01  0.2500000E+02
  0.0000000E+00  0.0000000E+00  0.2200000E+01  0.3792532E+01  0.1363860E+01  0.8046773E+02  0.1816997E+00  0.3911029E-05 -0.2012793E-03 -0.1973683E-03  0.1957263E+00 -0.1007296E+02 -0.9877235E+01  0.2500000E+02
  0.0000000E+00  0.0000000E+00  0.2150000E+01  0.3685591E+01  0.1485137E+01  0.8762310E+02  0.1807438E+00  0.2821194E-05 -0.2574093E-03 -0.2545881E-03  0.1411858E+00 -0.1288197E+02 -0.1274079E+02  0.2500000E+02
  0.0000000E+00  0.0000000E+00  0.2100000E+01  0.1977389E+01  0.3433338E+01  0.2025669E+03  0.1838676E+00  0.5214006E-07 -0.1315641E-01 -0.1315636E-01  0.2609334E-02 -0.6584086E+03 -0.6584060E+03  0.2500000E+02
  0.0000000E+00  0.0000000E+00  0.2050000E+01  0.1745665E+01  0.3695514E+01  0.2180353E+03  0.1861527E+00  0.2917831E-07 -0.2244611E-01 -0.2244608E-01  0.1460220E-02 -0.1123309E+04 -0.1123307E+04  0.2500000E+02
  0.0000000E+00  0.0000000E+00  0.2000000E+01  0.1632306E+01  0.3823266E+01  0.2255727E+03  0.1876275E+00  0.2158214E-07 -0.2915302E-01 -0.2915300E-01  0.1080072E-02 -0.1458954E+04 -0.1458953E+04  0.2500000E+02
  0.0000000E+00  0.0000000E+00  0.1950000E+01  0.1567904E+01  0.3895645E+01  0.2298430E+03  0.1885062E+00  0.1794096E-07 -0.3382149E-01 -0.3382148E-01  0.8978499E-03 -0.1692587E+04 -0.1692586E+04  0.2500000E+02
  0.0000000E+00  0.0000000E+00  0.1900000E+01  0.1528803E+01  0.3939490E+01  0.2324299E+03  0.1889818E+00  0.1585057E-07 -0.3701284E-01 -0.3701282E-01  0.7932371E-03 -0.1852296E+04 -0.1852295E+04  0.2500000E+02
  0.0000000E+00  0.0000000E+00  0.1850000E+01  0.1503579E+01  0.3967710E+01  0.2340949E+03  0.1892047E+00  0.1448356E-07 -0.3922868E-01 -0.3922867E-01  0.7248252E-03 -0.1963188E+04 -0.1963187E+04  0.2500000E+02
  0.0000000E+00  0.0000000E+00  0.1800000E+01  0.1486092E+01  0.3987230E+01  0.2352466E+03  0.1892779E+00  0.1348716E-07 -0.4084138E-01 -0.4084137E-01  0.6749610E-03 -0.2043895E+04 -0.2043894E+04  0.2500000E+02
  0.0000000E+00  0.0000000E+00  0.1750000E+01  0.1472941E+01  0.4001877E+01  0.2361107E+03  0.1892659E+00  0.1269338E-07 -0.4209697E-01 -0.4209696E-01  0.6352365E-03 -0.2106730E+04 -0.2106730E+04  0.2500000E+02
  0.0000000E+00  0.0000000E+00  0.1700000E+01  0.1462232E+01  0.4013781E+01  0.2368130E+03  0.1892073E+00  0.1201697E-07 -0.4314727E-01 -0.4314726E-01  0.6013859E-03 -0.2159292E+04 -0.2159292E+04  0.2500000E+02
  0.0000000E+00  0.0000000E+00  0.1650000E+01  0.1452914E+01  0.4024122E+01  0.2374232E+03  0.1891240E+00  0.1141293E-07 -0.4408205E-01 -0.4408204E-01  0.5711565E-03 -0.2206073E+04 -0.2206073E+04  0.2500000E+02
  0.0000000E+00  0.0000000E+00  0.1600000E+01  0.1444407E+01  0.4033554E+01  0.2379797E+03  0.1890283E+00  0.1085673E-07 -0.4495294E-01 -0.4495293E-01  0.5433219E-03 -0.2249657E+04 -0.2249656E+04  0.2500000E+02
  0.0000000E+00  0.0000000E+00  0.1550000E+01  0.1436392E+01  0.4042434E+01  0.2385036E+03  0.1889268E+00  0.1033463E-07 -0.4578903E-01 -0.4578902E-01  0.5171936E-03 -0.2291498E+04 -0.2291498E+04  0.2500000E+02
  0.0000000E+00  0.0000000E+00  0.1500000E+01  0.1428695E+01  0.4050956E+01  0.2390064E+03  0.1888227E+00  0.9838595E-08 -0.4660656E-01 -0.4660655E-01  0.4923695E-03 -0.2332411E+04 -0.2332411E+04  0.2500000E+02
  0.0000000E+00  0.0000000E+00  0.1450000E+01  0.1421219E+01  0.4059231E+01  0.2394946E+03  0.1887177E+00  0.9363699E-08 -0.4741455E-01 -0.4741454E-01  0.4686035E-03 -0.2372847E+04 -0.2372847E+04  0.2500000E+02
  0.0000000E+00  0.0000000E+00  0.1400000E+01  0.1413910E+01  0.4067316E+01  0.2399716E+03  0.1886126E+00  0.8906787E-08 -0.4821791E-01 -0.4821790E-01  0.4457375E-03 -0.2413051E+04 -0.2413050E+04  0.2500000E+02
  0.0000000E+00  0.0000000E+00  0.1350000E+01  0.1406739E+01  0.4075246E+01  0.2404395E+03  0.1885074E+00  0.8465689E-08 -0.4901937E-01 -0.4901936E-01  0.4236629E-03 -0.2453160E+04 -0.2453159E+04  0.2500000E+02
  0.0000000E+00  0.0000000E+00  0.1300000E+01  0.1399687E+01  0.4083041E+01  0.2408994E+03  0.1884023E+00  0.8038832E-08 -0.4982048E-01 -0.4982048E-01  0.4023009E-03 -0.2493251E+04 -0.2493251E+04  0.2500000E+02
  0.0000000E+00  0.0000000E+00  0.1250000E+01  0.1392743E+01  0.4090715E+01  0.2413522E+03  0.1882972E+00  0.7625025E-08 -0.5062213E-01 -0.5062212E-01  0.3815921E-03 -0.2533369E+04 -0.2533369E+04  0.2500000E+02
  0.0000000E+00  0.0000000E+00  0.1200000E+01  0.1385898E+01  0.4098275E+01  0.2417982E+03  0.1881922E+00  0.7223332E-08 -0.5142482E-01 -0.5142481E-01  0.3614895E-03 -0.2573540E+04 -0.2573539E+04  0.2500000E+02
  0.0000000E+00  0.0000000E+00  0.1150000E+01  0.1379148E+01  0.4105729E+01  0.2422380E+03  0.1880873E+00  0.6832979E-08 -0.5222894E-01 -0.5222893E-01  0.3419544E-03 -0.2613781E+04 -0.2613781E+04  0.2500000E+02
  0.0000000E+00  0.0000000E+00  0.1100000E+01  0.1372487E+01  0.4113082E+01  0.2426718E+03  0.1879829E+00  0.6453327E-08 -0.5303475E-01 -0.5303474E-01  0.3229548E-03 -0.2654108E+04 -0.2654108E+04  0.2500000E+02
  0.0000000E+00  0.0000000E+00  0.1050000E+01  0.1365910E+01  0.4120339E+01  0.2431000E+03  0.1878793E+00  0.6083834E-08 -0.5384251E-01 -0.5384250E-01  0.3044636E-03 -0.2694532E+04 -0.2694532E+04  0.2500000E+02
  0.0000000E+00  0.0000000E+00  0.1000000E+01  0.1359414E+01  0.4127506E+01  0.2435229E+03  0.1877773E+00  0.5724026E-08 -0.5465249E-01 -0.5465249E-01  0.2864572E-03 -0.2735068E+04 -0.2735067E+04  0.2500000E+02
  0.0000000E+00  0.0000000E+00  0.9500000E+00  0.1352993E+01  0.4134589E+01  0.2439407E+03  0.1876777E+00  0.5373495E-08 -0.5546501E-01 -0.5546500E-01  0.2689149E-03 -0.2775730E+04 -0.2775729E+04  0.2500000E+02
  0.0000000E+00  0.0000000E+00  0.9000000E+00  0.1346645E+01  0.4141590E+01  0.2443538E+03  0.1875812E+00  0.5031888E-08 -0.5628028E-01 -0.5628028E-01  0.2518193E-03 -0.2816530E+04 -0.2816530E+04  0.2500000E+02
  0.0000000E+00  0.0000000E+00  0.8500000E+00  0.1340366E+01  0.4148515E+01  0.2447624E+03  0.1874885E+00  0.4698896E-08 -0.5709855E-01 -0.5709854E-01  0.2351548E-03 -0.2857480E+04 -0.2857479E+04  0.2500000E+02
  0.0000000E+00  0.0000000E+00  0.8000000E+00  0.1334148E+01  0.4166271E+01  0.2458100E+03  0.1873950E+00  0.4374166E-08 -0.5792044E-01 -0.5792043E-01  0.2189038E-03 -0.2898611E+04 -0.2898611E+04  0.2500000E+02
  0.0000000E+00  0.0000000E+00  0.7500000E+00  0.1379656E+01  0.1146334E+02  0.6763373E+03  0.1670828E+00  0.4532066E-08 -0.5187309E-01 -0.5187309E-01  0.2268059E-03 -0.2595973E+04 -0.2595973E+04  0.2500000E+02
  0.0000000E+00  0.0000000E+00  0.7000000E+00  0.1445229E+01  0.1864255E+02  0.1099910E+04  0.1406436E+00  0.4876339E-08 -0.4421929E-01 -0.4421928E-01  0.2440349E-03 -0.2212941E+04 -0.2212941E+04  0.2500000E+02
  0.0000000E+00  0.0000000E+00  0.6500000E+00  0.1463831E+01  0.1875216E+02  0.1106378E+04  0.1343311E+00  0.4732652E-08 -0.4226887E-01 -0.4226887E-01  0.2368441E-03 -0.2115333E+04 -0.2115333E+04  0.2500000E+02
  0.0000000E+00  0.0000000E+00  0.6000000E+00  0.1484695E+01  0.1880635E+02  0.1109575E+04  0.1278958E+00  0.4591482E-08 -0.4018821E-01 -0.4018821E-01  0.2297793E-03 -0.2011207E+04 -0.2011207E+04  0.2500000E+02
  0.0000000E+00  0.0000000E+00  0.5500000E+00  0.1507585E+01  0.1883761E+02  0.1111419E+04  0.1215105E+00  0.4446905E-08 -0.3802800E-01 -0.3802800E-01  0.2225440E-03 -0.1903100E+04 -0.1903100E+04  0.2500000E+02
  0.0000000E+00  0.0000000E+00  0.5000000E+00  0.1533018E+01  0.1885488E+02  0.1112438E+04  0.1151548E+00  0.4299858E-08 -0.3576930E-01 -0.3576930E-01  0.2151851E-03 -0.1790064E+04 -0.1790064E+04  0.2500000E+02
  0.0000000E+00  0.0000000E+00  0.4500000E+00  0.1561639E+01  0.1886165E+02  0.1112837E+04  0.1088188E+00  0.4151154E-08 -0.3339386E-01 -0.3339385E-01  0.2077433E-03 -0.1671186E+04 -0.1671185E+04  0.2500000E+02
  0.0000000E+00  0.0000000E+00  0.4000000E+00  0.1594327E+01  0.1885923E+02  0.1112694E+04  0.1024932E+00  0.4001851E-08 -0.3088064E-01 -0.3088063E-01  0.2002714E-03 -0.1545412E+04 -0.1545412E+04  0.2500000E+02
  0.0000000E+00  0.0000000E+00  0.3500000E+00  0.1632265E+01  0.1884775E+02  0.1112017E+04  0.9614882E-01  0.3852837E-08 -0.2820783E-01 -0.2820782E-01  0.1928141E-03 -0.1411652E+04 -0.1411652E+04  0.2500000E+02
  0.0000000E+00  0.0000000E+00  0.3000000E+00  0.1676161E+01  0.1882738E+02  0.1110815E+04  0.8891860E-01  0.3690063E-08 -0.2539811E-01 -0.2539810E-01  0.1846681E-03 -0.1271041E+04 -0.1271041E+04  0.2500000E+02
  0.0000000E+00  0.0000000E+00  0.2500000E+00  0.1711725E+01  0.1881296E+02  0.1109965E+04  0.6878120E-01  0.3283864E-08 -0.2310670E-01 -0.2310670E-01  0.1643400E-03 -0.1156368E+04 -0.1156368E+04  0.2500000E+02
  0.0000000E+00  0.0000000E+00  0.2000000E+00  0.1768337E+01  0.1877560E+02  0.1107761E+04  0.5612638E-01  0.3020165E-08 -0.2008329E-01 -0.2008328E-01  0.1511433E-03 -0.1005062E+04 -0.1005062E+04  0.2500000E+02
  0.0000000E+00  0.0000000E+00  0.1500000E+00  0.1849990E+01  0.1871162E+02  0.1103985E+04  0.4667756E-01  0.2833657E-08 -0.1649521E-01 -0.1649521E-01  0.1418095E-03 -0.8254979E+03 -0.8254978E+03  0.2500000E+02
  0.0000000E+00  0.0000000E+00  0.1000000E+00  0.1971169E+01  0.1860676E+02  0.1097799E+04  0.3852878E-01  0.2715873E-08 -0.1236746E-01 -0.1236746E-01  0.1359151E-03 -0.6189258E+03 -0.6189256E+03  0.2500000E+02
  0.0000000E+00  0.0000000E+00  0.5000000E-01  0.2177367E+01  0.1841573E+02  0.1086528E+04  0.3079811E-01  0.2759203E-08 -0.7614751E-02 -0.7614748E-02  0.1380835E-03 -0.3810779E+03 -0.3810778E+03  0.2500000E+02
  0.0000000E+00  0.0000000E+00  0.0000000E+00  0.2747401E+01  0.1785985E+02  0.1053731E+04  0.2298244E-01  0.4453158E-08 -0.2023346E-02 -0.2023342E-02  0.2228569E-03 -0.1012578E+03 -0.1012575E+03  0.2500000E+02
