title = "dataset amd_ex"
variables = "x", "y", "z","o2(g)","co2(g)", "p_t_o_t"
zone t = "G_i, T =  1.000E+01 years", i =  101, j =    1, k =    1,  f=point
  0.0000000E+00  0.0000000E+00  0.5000000E+01  0.1551574E-64  0.1280885E+00  0.1280885E+00
  0.0000000E+00  0.0000000E+00  0.4950000E+01  0.1552911E-64  0.1284748E+00  0.1284748E+00
  0.0000000E+00  0.0000000E+00  0.4900000E+01  0.1556531E-64  0.1295252E+00  0.1295252E+00
  0.0000000E+00  0.0000000E+00  0.4850000E+01  0.1561832E-64  0.1310744E+00  0.1310744E+00
  0.0000000E+00  0.0000000E+00  0.4800000E+01  0.1568491E-64  0.1330392E+00  0.1330392E+00
  0.0000000E+00  0.0000000E+00  0.4750000E+01  0.1576355E-64  0.1353868E+00  0.1353868E+00
  0.0000000E+00  0.0000000E+00  0.4700000E+01  0.1585381E-64  0.1381173E+00  0.1381173E+00
  0.0000000E+00  0.0000000E+00  0.4650000E+01  0.1595590E-64  0.1412525E+00  0.1412525E+00
  0.0000000E+00  0.0000000E+00  0.4600000E+01  0.1607044E-64  0.1448303E+00  0.1448303E+00
  0.0000000E+00  0.0000000E+00  0.4550000E+01  0.1619833E-64  0.1489012E+00  0.1489012E+00
  0.0000000E+00  0.0000000E+00  0.4500000E+01  0.1634064E-64  0.1535264E+00  0.1535264E+00
  0.0000000E+00  0.0000000E+00  0.4450000E+01  0.1649854E-64  0.1587770E+00  0.1587770E+00
  0.0000000E+00  0.0000000E+00  0.4400000E+01  0.1667323E-64  0.1647338E+00  0.1647338E+00
  0.0000000E+00  0.0000000E+00  0.4350000E+01  0.1686590E-64  0.1714868E+00  0.1714868E+00
  0.0000000E+00  0.0000000E+00  0.4300000E+01  0.1707769E-64  0.1791356E+00  0.1791356E+00
  0.0000000E+00  0.0000000E+00  0.4250000E+01  0.1730966E-64  0.1877889E+00  0.1877889E+00
  0.0000000E+00  0.0000000E+00  0.4200000E+01  0.1756271E-64  0.1975644E+00  0.1975644E+00
  0.0000000E+00  0.0000000E+00  0.4150000E+01  0.1783759E-64  0.2085883E+00  0.2085883E+00
  0.0000000E+00  0.0000000E+00  0.4100000E+01  0.1813479E-64  0.2209942E+00  0.2209942E+00
  0.0000000E+00  0.0000000E+00  0.4050000E+01  0.1845461E-64  0.2349223E+00  0.2349223E+00
  0.0000000E+00  0.0000000E+00  0.4000000E+01  0.1879710E-64  0.2505174E+00  0.2505174E+00
  0.0000000E+00  0.0000000E+00  0.3950000E+01  0.1916310E-64  0.2679290E+00  0.2679290E+00
  0.0000000E+00  0.0000000E+00  0.3900000E+01  0.1958237E-64  0.2873860E+00  0.2873860E+00
  0.0000000E+00  0.0000000E+00  0.3850000E+01  0.2115114E-64  0.3117591E+00  0.3117591E+00
  0.0000000E+00  0.0000000E+00  0.3800000E+01  0.7618759E-64  0.4212131E+00  0.4212131E+00
  0.0000000E+00  0.0000000E+00  0.3750000E+01  0.3858700E-63  0.5033748E+00  0.5033748E+00
  0.0000000E+00  0.0000000E+00  0.3700000E+01  0.5744403E-63  0.5458578E+00  0.5458578E+00
  0.0000000E+00  0.0000000E+00  0.3650000E+01  0.7139971E-63  0.5885817E+00  0.5885817E+00
  0.0000000E+00  0.0000000E+00  0.3600000E+01  0.8270399E-63  0.6333554E+00  0.6333554E+00
  0.0000000E+00  0.0000000E+00  0.3550000E+01  0.9224451E-63  0.6805741E+00  0.6805741E+00
  0.0000000E+00  0.0000000E+00  0.3500000E+01  0.1004823E-62  0.7303460E+00  0.7303460E+00
  0.0000000E+00  0.0000000E+00  0.3450000E+01  0.1076998E-62  0.7826532E+00  0.7826532E+00
  0.0000000E+00  0.0000000E+00  0.3400000E+01  0.1140901E-62  0.8373941E+00  0.8373941E+00
  0.0000000E+00  0.0000000E+00  0.3350000E+01  0.1197942E-62  0.8943981E+00  0.8943981E+00
  0.0000000E+00  0.0000000E+00  0.3300000E+01  0.1249185E-62  0.9534331E+00  0.9534331E+00
  0.0000000E+00  0.0000000E+00  0.3250000E+01  0.1295448E-62  0.1014210E+01  0.1014210E+01
  0.0000000E+00  0.0000000E+00  0.3200000E+01  0.1337369E-62  0.1076390E+01  0.1076390E+01
  0.0000000E+00  0.0000000E+00  0.3150000E+01  0.1375454E-62  0.1139592E+01  0.1139592E+01
  0.0000000E+00  0.0000000E+00  0.3100000E+01  0.1410108E-62  0.1203403E+01  0.1203403E+01
  0.0000000E+00  0.0000000E+00  0.3050000E+01  0.1441667E-62  0.1267388E+01  0.1267388E+01
  0.0000000E+00  0.0000000E+00  0.3000000E+01  0.1470412E-62  0.1331107E+01  0.1331107E+01
  0.0000000E+00  0.0000000E+00  0.2950000E+01  0.1496602E-62  0.1394108E+01  0.1394108E+01
  0.0000000E+00  0.0000000E+00  0.2900000E+01  0.1520672E-62  0.1455844E+01  0.1455844E+01
  0.0000000E+00  0.0000000E+00  0.2850000E+01  0.1543767E-62  0.1514646E+01  0.1514646E+01
  0.0000000E+00  0.0000000E+00  0.2800000E+01  0.1562161E-62  0.1562364E+01  0.1562364E+01
  0.0000000E+00  0.0000000E+00  0.2750000E+01  0.1842462E-62  0.1598641E+01  0.1598641E+01
  0.0000000E+00  0.0000000E+00  0.2700000E+01  0.3251862E-62  0.1184944E+01  0.1184944E+01
  0.0000000E+00  0.0000000E+00  0.2650000E+01  0.3445942E-62  0.8679804E+00  0.8679804E+00
  0.0000000E+00  0.0000000E+00  0.2600000E+01  0.3487099E-62  0.6233376E+00  0.6233376E+00
  0.0000000E+00  0.0000000E+00  0.2550000E+01  0.3471742E-62  0.4342879E+00  0.4342879E+00
  0.0000000E+00  0.0000000E+00  0.2500000E+01  0.3432455E-62  0.2905053E+00  0.2905053E+00
  0.0000000E+00  0.0000000E+00  0.2450000E+01  0.3384236E-62  0.1822261E+00  0.1822261E+00
  0.0000000E+00  0.0000000E+00  0.2400000E+01  0.3334105E-62  0.1022317E+00  0.1022317E+00
  0.0000000E+00  0.0000000E+00  0.2350000E+01  0.3286026E-62  0.5893416E-01  0.5893416E-01
  0.0000000E+00  0.0000000E+00  0.2300000E+01  0.3243380E-62  0.4228880E-01  0.4228880E-01
  0.0000000E+00  0.0000000E+00  0.2250000E+01  0.3209051E-62  0.3509468E-01  0.3509468E-01
  0.0000000E+00  0.0000000E+00  0.2200000E+01  0.3187555E-62  0.3125999E-01  0.3125999E-01
  0.0000000E+00  0.0000000E+00  0.2150000E+01  0.3637557E-62  0.2885422E-01  0.2885422E-01
  0.0000000E+00  0.0000000E+00  0.2100000E+01  0.3315548E-61  0.2715919E-01  0.2715919E-01
  0.0000000E+00  0.0000000E+00  0.2050000E+01  0.4387170E-61  0.2585638E-01  0.2585638E-01
  0.0000000E+00  0.0000000E+00  0.2000000E+01  0.5007629E-61  0.2479166E-01  0.2479166E-01
  0.0000000E+00  0.0000000E+00  0.1950000E+01  0.5388446E-61  0.2387991E-01  0.2387991E-01
  0.0000000E+00  0.0000000E+00  0.1900000E+01  0.5628396E-61  0.2307086E-01  0.2307086E-01
  0.0000000E+00  0.0000000E+00  0.1850000E+01  0.5785455E-61  0.2233293E-01  0.2233293E-01
  0.0000000E+00  0.0000000E+00  0.1800000E+01  0.5894478E-61  0.2164531E-01  0.2164531E-01
  0.0000000E+00  0.0000000E+00  0.1750000E+01  0.5976035E-61  0.2099380E-01  0.2099380E-01
  0.0000000E+00  0.0000000E+00  0.1700000E+01  0.6042008E-61  0.2036833E-01  0.2036833E-01
  0.0000000E+00  0.0000000E+00  0.1650000E+01  0.6099139E-61  0.1976166E-01  0.1976166E-01
  0.0000000E+00  0.0000000E+00  0.1600000E+01  0.6151197E-61  0.1916842E-01  0.1916842E-01
  0.0000000E+00  0.0000000E+00  0.1550000E+01  0.6200260E-61  0.1858463E-01  0.1858463E-01
  0.0000000E+00  0.0000000E+00  0.1500000E+01  0.6247466E-61  0.1800726E-01  0.1800726E-01
  0.0000000E+00  0.0000000E+00  0.1450000E+01  0.6293440E-61  0.1743402E-01  0.1743402E-01
  0.0000000E+00  0.0000000E+00  0.1400000E+01  0.6338515E-61  0.1686317E-01  0.1686317E-01
  0.0000000E+00  0.0000000E+00  0.1350000E+01  0.6382876E-61  0.1629339E-01  0.1629339E-01
  0.0000000E+00  0.0000000E+00  0.1300000E+01  0.6426627E-61  0.1572367E-01  0.1572367E-01
  0.0000000E+00  0.0000000E+00  0.1250000E+01  0.6469831E-61  0.1515327E-01  0.1515327E-01
  0.0000000E+00  0.0000000E+00  0.1200000E+01  0.6512528E-61  0.1458166E-01  0.1458166E-01
  0.0000000E+00  0.0000000E+00  0.1150000E+01  0.6554754E-61  0.1400844E-01  0.1400844E-01
  0.0000000E+00  0.0000000E+00  0.1100000E+01  0.6596540E-61  0.1343335E-01  0.1343335E-01
  0.0000000E+00  0.0000000E+00  0.1050000E+01  0.6637923E-61  0.1285626E-01  0.1285626E-01
  0.0000000E+00  0.0000000E+00  0.1000000E+01  0.6678947E-61  0.1227708E-01  0.1227708E-01
  0.0000000E+00  0.0000000E+00  0.9500000E+00  0.6719657E-61  0.1169581E-01  0.1169581E-01
  0.0000000E+00  0.0000000E+00  0.9000000E+00  0.6760097E-61  0.1111250E-01  0.1111250E-01
  0.0000000E+00  0.0000000E+00  0.8500000E+00  0.6800304E-61  0.1052724E-01  0.1052724E-01
  0.0000000E+00  0.0000000E+00  0.8000000E+00  0.7562657E-61  0.9940170E-02  0.9940170E-02
  0.0000000E+00  0.0000000E+00  0.7500000E+00  0.1775160E-31  0.9351131E-02  0.9351131E-02
  0.0000000E+00  0.0000000E+00  0.7000000E+00  0.1693125E-02  0.8760384E-02  0.1045351E-01
  0.0000000E+00  0.0000000E+00  0.6500000E+00  0.5516768E-02  0.8168444E-02  0.1368521E-01
  0.0000000E+00  0.0000000E+00  0.6000000E+00  0.1101620E-01  0.7575395E-02  0.1859159E-01
  0.0000000E+00  0.0000000E+00  0.5500000E+00  0.1814384E-01  0.6981471E-02  0.2512531E-01
  0.0000000E+00  0.0000000E+00  0.5000000E+00  0.2689604E-01  0.6386915E-02  0.3328295E-01
  0.0000000E+00  0.0000000E+00  0.4500000E+00  0.3727022E-01  0.5791976E-02  0.4306220E-01
  0.0000000E+00  0.0000000E+00  0.4000000E+00  0.4926579E-01  0.5196912E-02  0.5446270E-01
  0.0000000E+00  0.0000000E+00  0.3500000E+00  0.6288232E-01  0.4601984E-02  0.6748431E-01
  0.0000000E+00  0.0000000E+00  0.3000000E+00  0.7811950E-01  0.4007453E-02  0.8212695E-01
  0.0000000E+00  0.0000000E+00  0.2500000E+00  0.9497695E-01  0.3413518E-02  0.9839047E-01
  0.0000000E+00  0.0000000E+00  0.2000000E+00  0.1134544E+00  0.2820539E-02  0.1162750E+00
  0.0000000E+00  0.0000000E+00  0.1500000E+00  0.1335517E+00  0.2228788E-02  0.1357805E+00
  0.0000000E+00  0.0000000E+00  0.1000000E+00  0.1552684E+00  0.1638536E-02  0.1569069E+00
  0.0000000E+00  0.0000000E+00  0.5000000E-01  0.1786042E+00  0.1050059E-02  0.1796543E+00
  0.0000000E+00  0.0000000E+00  0.0000000E+00  0.2035588E+00  0.4636320E-03  0.2040224E+00
