title = "dataset amd-ex"
variables = "x", "y", "z", "K_xx", "K_yy", "K_zz"
zone t = "K - initial [m/s]", i =  101, j =    1, k =    1,  f=point
  0.0000000E+00  0.0000000E+00  0.0000000E+00  0.0000000E+00  0.0000000E+00  0.1000000E-05
  0.0000000E+00  0.0000000E+00  0.5000000E-01  0.0000000E+00  0.0000000E+00  0.1000000E-05
  0.0000000E+00  0.0000000E+00  0.1000000E+00  0.0000000E+00  0.0000000E+00  0.1000000E-05
  0.0000000E+00  0.0000000E+00  0.1500000E+00  0.0000000E+00  0.0000000E+00  0.1000000E-05
  0.0000000E+00  0.0000000E+00  0.2000000E+00  0.0000000E+00  0.0000000E+00  0.1000000E-05
  0.0000000E+00  0.0000000E+00  0.2500000E+00  0.0000000E+00  0.0000000E+00  0.1000000E-05
  0.0000000E+00  0.0000000E+00  0.3000000E+00  0.0000000E+00  0.0000000E+00  0.1000000E-05
  0.0000000E+00  0.0000000E+00  0.3500000E+00  0.0000000E+00  0.0000000E+00  0.1000000E-05
  0.0000000E+00  0.0000000E+00  0.4000000E+00  0.0000000E+00  0.0000000E+00  0.1000000E-05
  0.0000000E+00  0.0000000E+00  0.4500000E+00  0.0000000E+00  0.0000000E+00  0.1000000E-05
  0.0000000E+00  0.0000000E+00  0.5000000E+00  0.0000000E+00  0.0000000E+00  0.1000000E-05
  0.0000000E+00  0.0000000E+00  0.5500000E+00  0.0000000E+00  0.0000000E+00  0.1000000E-05
  0.0000000E+00  0.0000000E+00  0.6000000E+00  0.0000000E+00  0.0000000E+00  0.1000000E-05
  0.0000000E+00  0.0000000E+00  0.6500000E+00  0.0000000E+00  0.0000000E+00  0.1000000E-05
  0.0000000E+00  0.0000000E+00  0.7000000E+00  0.0000000E+00  0.0000000E+00  0.1000000E-05
  0.0000000E+00  0.0000000E+00  0.7500000E+00  0.0000000E+00  0.0000000E+00  0.1000000E-05
  0.0000000E+00  0.0000000E+00  0.8000000E+00  0.0000000E+00  0.0000000E+00  0.1000000E-05
  0.0000000E+00  0.0000000E+00  0.8500000E+00  0.0000000E+00  0.0000000E+00  0.1000000E-05
  0.0000000E+00  0.0000000E+00  0.9000000E+00  0.0000000E+00  0.0000000E+00  0.1000000E-05
  0.0000000E+00  0.0000000E+00  0.9500000E+00  0.0000000E+00  0.0000000E+00  0.1000000E-05
  0.0000000E+00  0.0000000E+00  0.1000000E+01  0.0000000E+00  0.0000000E+00  0.1000000E-05
  0.0000000E+00  0.0000000E+00  0.1050000E+01  0.0000000E+00  0.0000000E+00  0.1000000E-05
  0.0000000E+00  0.0000000E+00  0.1100000E+01  0.0000000E+00  0.0000000E+00  0.1000000E-05
  0.0000000E+00  0.0000000E+00  0.1150000E+01  0.0000000E+00  0.0000000E+00  0.1000000E-05
  0.0000000E+00  0.0000000E+00  0.1200000E+01  0.0000000E+00  0.0000000E+00  0.1000000E-05
  0.0000000E+00  0.0000000E+00  0.1250000E+01  0.0000000E+00  0.0000000E+00  0.1000000E-05
  0.0000000E+00  0.0000000E+00  0.1300000E+01  0.0000000E+00  0.0000000E+00  0.1000000E-05
  0.0000000E+00  0.0000000E+00  0.1350000E+01  0.0000000E+00  0.0000000E+00  0.1000000E-05
  0.0000000E+00  0.0000000E+00  0.1400000E+01  0.0000000E+00  0.0000000E+00  0.1000000E-05
  0.0000000E+00  0.0000000E+00  0.1450000E+01  0.0000000E+00  0.0000000E+00  0.1000000E-05
  0.0000000E+00  0.0000000E+00  0.1500000E+01  0.0000000E+00  0.0000000E+00  0.1000000E-05
  0.0000000E+00  0.0000000E+00  0.1550000E+01  0.0000000E+00  0.0000000E+00  0.1000000E-05
  0.0000000E+00  0.0000000E+00  0.1600000E+01  0.0000000E+00  0.0000000E+00  0.1000000E-05
  0.0000000E+00  0.0000000E+00  0.1650000E+01  0.0000000E+00  0.0000000E+00  0.1000000E-05
  0.0000000E+00  0.0000000E+00  0.1700000E+01  0.0000000E+00  0.0000000E+00  0.1000000E-05
  0.0000000E+00  0.0000000E+00  0.1750000E+01  0.0000000E+00  0.0000000E+00  0.1000000E-05
  0.0000000E+00  0.0000000E+00  0.1800000E+01  0.0000000E+00  0.0000000E+00  0.1000000E-05
  0.0000000E+00  0.0000000E+00  0.1850000E+01  0.0000000E+00  0.0000000E+00  0.1000000E-05
  0.0000000E+00  0.0000000E+00  0.1900000E+01  0.0000000E+00  0.0000000E+00  0.1000000E-05
  0.0000000E+00  0.0000000E+00  0.1950000E+01  0.0000000E+00  0.0000000E+00  0.1000000E-05
  0.0000000E+00  0.0000000E+00  0.2000000E+01  0.0000000E+00  0.0000000E+00  0.1000000E-05
  0.0000000E+00  0.0000000E+00  0.2050000E+01  0.0000000E+00  0.0000000E+00  0.1000000E-05
  0.0000000E+00  0.0000000E+00  0.2100000E+01  0.0000000E+00  0.0000000E+00  0.1000000E-05
  0.0000000E+00  0.0000000E+00  0.2150000E+01  0.0000000E+00  0.0000000E+00  0.1000000E-05
  0.0000000E+00  0.0000000E+00  0.2200000E+01  0.0000000E+00  0.0000000E+00  0.1000000E-05
  0.0000000E+00  0.0000000E+00  0.2250000E+01  0.0000000E+00  0.0000000E+00  0.1000000E-05
  0.0000000E+00  0.0000000E+00  0.2300000E+01  0.0000000E+00  0.0000000E+00  0.1000000E-05
  0.0000000E+00  0.0000000E+00  0.2350000E+01  0.0000000E+00  0.0000000E+00  0.1000000E-05
  0.0000000E+00  0.0000000E+00  0.2400000E+01  0.0000000E+00  0.0000000E+00  0.1000000E-05
  0.0000000E+00  0.0000000E+00  0.2450000E+01  0.0000000E+00  0.0000000E+00  0.1000000E-05
  0.0000000E+00  0.0000000E+00  0.2500000E+01  0.0000000E+00  0.0000000E+00  0.1000000E-05
  0.0000000E+00  0.0000000E+00  0.2550000E+01  0.0000000E+00  0.0000000E+00  0.1000000E-05
  0.0000000E+00  0.0000000E+00  0.2600000E+01  0.0000000E+00  0.0000000E+00  0.1000000E-05
  0.0000000E+00  0.0000000E+00  0.2650000E+01  0.0000000E+00  0.0000000E+00  0.1000000E-05
  0.0000000E+00  0.0000000E+00  0.2700000E+01  0.0000000E+00  0.0000000E+00  0.1000000E-05
  0.0000000E+00  0.0000000E+00  0.2750000E+01  0.0000000E+00  0.0000000E+00  0.1000000E-05
  0.0000000E+00  0.0000000E+00  0.2800000E+01  0.0000000E+00  0.0000000E+00  0.1000000E-05
  0.0000000E+00  0.0000000E+00  0.2850000E+01  0.0000000E+00  0.0000000E+00  0.1000000E-05
  0.0000000E+00  0.0000000E+00  0.2900000E+01  0.0000000E+00  0.0000000E+00  0.1000000E-05
  0.0000000E+00  0.0000000E+00  0.2950000E+01  0.0000000E+00  0.0000000E+00  0.1000000E-05
  0.0000000E+00  0.0000000E+00  0.3000000E+01  0.0000000E+00  0.0000000E+00  0.1000000E-05
  0.0000000E+00  0.0000000E+00  0.3050000E+01  0.0000000E+00  0.0000000E+00  0.1000000E-05
  0.0000000E+00  0.0000000E+00  0.3100000E+01  0.0000000E+00  0.0000000E+00  0.1000000E-05
  0.0000000E+00  0.0000000E+00  0.3150000E+01  0.0000000E+00  0.0000000E+00  0.1000000E-05
  0.0000000E+00  0.0000000E+00  0.3200000E+01  0.0000000E+00  0.0000000E+00  0.1000000E-05
  0.0000000E+00  0.0000000E+00  0.3250000E+01  0.0000000E+00  0.0000000E+00  0.1000000E-05
  0.0000000E+00  0.0000000E+00  0.3300000E+01  0.0000000E+00  0.0000000E+00  0.1000000E-05
  0.0000000E+00  0.0000000E+00  0.3350000E+01  0.0000000E+00  0.0000000E+00  0.1000000E-05
  0.0000000E+00  0.0000000E+00  0.3400000E+01  0.0000000E+00  0.0000000E+00  0.1000000E-05
  0.0000000E+00  0.0000000E+00  0.3450000E+01  0.0000000E+00  0.0000000E+00  0.1000000E-05
  0.0000000E+00  0.0000000E+00  0.3500000E+01  0.0000000E+00  0.0000000E+00  0.1000000E-05
  0.0000000E+00  0.0000000E+00  0.3550000E+01  0.0000000E+00  0.0000000E+00  0.1000000E-05
  0.0000000E+00  0.0000000E+00  0.3600000E+01  0.0000000E+00  0.0000000E+00  0.1000000E-05
  0.0000000E+00  0.0000000E+00  0.3650000E+01  0.0000000E+00  0.0000000E+00  0.1000000E-05
  0.0000000E+00  0.0000000E+00  0.3700000E+01  0.0000000E+00  0.0000000E+00  0.1000000E-05
  0.0000000E+00  0.0000000E+00  0.3750000E+01  0.0000000E+00  0.0000000E+00  0.1000000E-05
  0.0000000E+00  0.0000000E+00  0.3800000E+01  0.0000000E+00  0.0000000E+00  0.1000000E-05
  0.0000000E+00  0.0000000E+00  0.3850000E+01  0.0000000E+00  0.0000000E+00  0.1000000E-05
  0.0000000E+00  0.0000000E+00  0.3900000E+01  0.0000000E+00  0.0000000E+00  0.1000000E-05
  0.0000000E+00  0.0000000E+00  0.3950000E+01  0.0000000E+00  0.0000000E+00  0.1000000E-05
  0.0000000E+00  0.0000000E+00  0.4000000E+01  0.0000000E+00  0.0000000E+00  0.1000000E-05
  0.0000000E+00  0.0000000E+00  0.4050000E+01  0.0000000E+00  0.0000000E+00  0.1000000E-05
  0.0000000E+00  0.0000000E+00  0.4100000E+01  0.0000000E+00  0.0000000E+00  0.1000000E-05
  0.0000000E+00  0.0000000E+00  0.4150000E+01  0.0000000E+00  0.0000000E+00  0.1000000E-05
  0.0000000E+00  0.0000000E+00  0.4200000E+01  0.0000000E+00  0.0000000E+00  0.1000000E-05
  0.0000000E+00  0.0000000E+00  0.4250000E+01  0.0000000E+00  0.0000000E+00  0.1000000E-05
  0.0000000E+00  0.0000000E+00  0.4300000E+01  0.0000000E+00  0.0000000E+00  0.1000000E-05
  0.0000000E+00  0.0000000E+00  0.4350000E+01  0.0000000E+00  0.0000000E+00  0.1000000E-05
  0.0000000E+00  0.0000000E+00  0.4400000E+01  0.0000000E+00  0.0000000E+00  0.1000000E-05
  0.0000000E+00  0.0000000E+00  0.4450000E+01  0.0000000E+00  0.0000000E+00  0.1000000E-05
  0.0000000E+00  0.0000000E+00  0.4500000E+01  0.0000000E+00  0.0000000E+00  0.1000000E-05
  0.0000000E+00  0.0000000E+00  0.4550000E+01  0.0000000E+00  0.0000000E+00  0.1000000E-05
  0.0000000E+00  0.0000000E+00  0.4600000E+01  0.0000000E+00  0.0000000E+00  0.1000000E-05
  0.0000000E+00  0.0000000E+00  0.4650000E+01  0.0000000E+00  0.0000000E+00  0.1000000E-05
  0.0000000E+00  0.0000000E+00  0.4700000E+01  0.0000000E+00  0.0000000E+00  0.1000000E-05
  0.0000000E+00  0.0000000E+00  0.4750000E+01  0.0000000E+00  0.0000000E+00  0.1000000E-05
  0.0000000E+00  0.0000000E+00  0.4800000E+01  0.0000000E+00  0.0000000E+00  0.1000000E-05
  0.0000000E+00  0.0000000E+00  0.4850000E+01  0.0000000E+00  0.0000000E+00  0.1000000E-05
  0.0000000E+00  0.0000000E+00  0.4900000E+01  0.0000000E+00  0.0000000E+00  0.1000000E-05
  0.0000000E+00  0.0000000E+00  0.4950000E+01  0.0000000E+00  0.0000000E+00  0.1000000E-05
  0.0000000E+00  0.0000000E+00  0.5000000E+01  0.0000000E+00  0.0000000E+00  0.1000000E-05
