title = "dataset amd_ex"
variables = "x", "y", "z","pyrite","calcite","siderite(d)","gibbsite(c)","gypsum","ferrihydrite","jarositek","k-feldspar-d","muscovite-d","sio2(a,pt)","porosity"
zone t = "phi_i, T =  1.000E+01 years", i =  101, j =    1, k =    1,  f=point
  0.0000000E+00  0.0000000E+00  0.5000000E+01  0.1370000E-01  0.1762195E-02  0.3489795E-03  0.1000000E-09  0.6070550E-02  0.1000000E-09  0.1000000E-09  0.2548782E-01  0.7484774E-01  0.1000000E-09  0.8777827E+00
  0.0000000E+00  0.0000000E+00  0.4950000E+01  0.1370000E-01  0.1762106E-02  0.3489795E-03  0.1000000E-09  0.6070739E-02  0.1000000E-09  0.1000000E-09  0.2548780E-01  0.7484775E-01  0.1000000E-09  0.8777826E+00
  0.0000000E+00  0.0000000E+00  0.4900000E+01  0.1370000E-01  0.1761937E-02  0.3489797E-03  0.1000000E-09  0.6071110E-02  0.1000000E-09  0.1000000E-09  0.2548772E-01  0.7484778E-01  0.1000000E-09  0.8777825E+00
  0.0000000E+00  0.0000000E+00  0.4850000E+01  0.1370000E-01  0.1761779E-02  0.3489799E-03  0.1000000E-09  0.6071466E-02  0.1000000E-09  0.1000000E-09  0.2548761E-01  0.7484783E-01  0.1000000E-09  0.8777823E+00
  0.0000000E+00  0.0000000E+00  0.4800000E+01  0.1370000E-01  0.1761659E-02  0.3489801E-03  0.1000000E-09  0.6071746E-02  0.1000000E-09  0.1000000E-09  0.2548747E-01  0.7484789E-01  0.1000000E-09  0.8777823E+00
  0.0000000E+00  0.0000000E+00  0.4750000E+01  0.1370000E-01  0.1761576E-02  0.3489803E-03  0.1000000E-09  0.6071945E-02  0.1000000E-09  0.1000000E-09  0.2548730E-01  0.7484796E-01  0.1000000E-09  0.8777822E+00
  0.0000000E+00  0.0000000E+00  0.4700000E+01  0.1370000E-01  0.1761523E-02  0.3489805E-03  0.1000000E-09  0.6072079E-02  0.1000000E-09  0.1000000E-09  0.2548711E-01  0.7484805E-01  0.1000000E-09  0.8777823E+00
  0.0000000E+00  0.0000000E+00  0.4650000E+01  0.1370000E-01  0.1761490E-02  0.3489806E-03  0.1000000E-09  0.6072164E-02  0.1000000E-09  0.1000000E-09  0.2548690E-01  0.7484814E-01  0.1000000E-09  0.8777823E+00
  0.0000000E+00  0.0000000E+00  0.4600000E+01  0.1370000E-01  0.1761471E-02  0.3489807E-03  0.1000000E-09  0.6072217E-02  0.1000000E-09  0.1000000E-09  0.2548667E-01  0.7484823E-01  0.1000000E-09  0.8777824E+00
  0.0000000E+00  0.0000000E+00  0.4550000E+01  0.1370000E-01  0.1761457E-02  0.3489807E-03  0.1000000E-09  0.6072248E-02  0.1000000E-09  0.1000000E-09  0.2548644E-01  0.7484834E-01  0.1000000E-09  0.8777825E+00
  0.0000000E+00  0.0000000E+00  0.4500000E+01  0.1370000E-01  0.1761446E-02  0.3489808E-03  0.1000000E-09  0.6072267E-02  0.1000000E-09  0.1000000E-09  0.2548620E-01  0.7484844E-01  0.1000000E-09  0.8777827E+00
  0.0000000E+00  0.0000000E+00  0.4450000E+01  0.1370000E-01  0.1761432E-02  0.3489807E-03  0.1000000E-09  0.6072280E-02  0.1000000E-09  0.1000000E-09  0.2548596E-01  0.7484854E-01  0.1000000E-09  0.8777828E+00
  0.0000000E+00  0.0000000E+00  0.4400000E+01  0.1370000E-01  0.1761412E-02  0.3489807E-03  0.1000000E-09  0.6072293E-02  0.1000000E-09  0.1000000E-09  0.2548574E-01  0.7484864E-01  0.1000000E-09  0.8777829E+00
  0.0000000E+00  0.0000000E+00  0.4350000E+01  0.1370000E-01  0.1761382E-02  0.3489805E-03  0.1000000E-09  0.6072310E-02  0.1000000E-09  0.1000000E-09  0.2548553E-01  0.7484873E-01  0.1000000E-09  0.8777831E+00
  0.0000000E+00  0.0000000E+00  0.4300000E+01  0.1370000E-01  0.1761339E-02  0.3489803E-03  0.1000000E-09  0.6072334E-02  0.1000000E-09  0.1000000E-09  0.2548533E-01  0.7484882E-01  0.1000000E-09  0.8777832E+00
  0.0000000E+00  0.0000000E+00  0.4250000E+01  0.1370000E-01  0.1761280E-02  0.3489801E-03  0.1000000E-09  0.6072369E-02  0.1000000E-09  0.1000000E-09  0.2548517E-01  0.7484889E-01  0.1000000E-09  0.8777833E+00
  0.0000000E+00  0.0000000E+00  0.4200000E+01  0.1370000E-01  0.1761202E-02  0.3489797E-03  0.1000000E-09  0.6072419E-02  0.1000000E-09  0.1000000E-09  0.2548505E-01  0.7484894E-01  0.1000000E-09  0.8777834E+00
  0.0000000E+00  0.0000000E+00  0.4150000E+01  0.1370000E-01  0.1761104E-02  0.3489793E-03  0.1000000E-09  0.6072483E-02  0.1000000E-09  0.1000000E-09  0.2548495E-01  0.7484899E-01  0.1000000E-09  0.8777835E+00
  0.0000000E+00  0.0000000E+00  0.4100000E+01  0.1370000E-01  0.1760981E-02  0.3489787E-03  0.1000000E-09  0.6072567E-02  0.1000000E-09  0.1000000E-09  0.2548489E-01  0.7484901E-01  0.1000000E-09  0.8777836E+00
  0.0000000E+00  0.0000000E+00  0.4050000E+01  0.1370000E-01  0.1760831E-02  0.3489781E-03  0.1000000E-09  0.6072678E-02  0.1000000E-09  0.1000000E-09  0.2548487E-01  0.7484902E-01  0.1000000E-09  0.8777836E+00
  0.0000000E+00  0.0000000E+00  0.4000000E+01  0.1370000E-01  0.1760646E-02  0.3489778E-03  0.1000000E-09  0.6072873E-02  0.1000000E-09  0.1000000E-09  0.2548492E-01  0.7484900E-01  0.1000000E-09  0.8777836E+00
  0.0000000E+00  0.0000000E+00  0.3950000E+01  0.1370000E-01  0.1760338E-02  0.3489890E-03  0.1000000E-09  0.6074043E-02  0.1000000E-09  0.1000000E-09  0.2548496E-01  0.7484898E-01  0.1000000E-09  0.8777827E+00
  0.0000000E+00  0.0000000E+00  0.3900000E+01  0.1370000E-01  0.1756875E-02  0.3494405E-03  0.1000000E-09  0.6090031E-02  0.1000000E-09  0.1000000E-09  0.2548504E-01  0.7484894E-01  0.1000000E-09  0.8777697E+00
  0.0000000E+00  0.0000000E+00  0.3850000E+01  0.1370000E-01  0.1643695E-02  0.3745960E-03  0.1000000E-09  0.6315342E-02  0.1000000E-09  0.1000000E-09  0.2548516E-01  0.7484889E-01  0.1000000E-09  0.8776323E+00
  0.0000000E+00  0.0000000E+00  0.3800000E+01  0.1370000E-01  0.1000000E-09  0.1428321E-02  0.1000000E-09  0.8644793E-02  0.1000000E-09  0.1000000E-09  0.2548532E-01  0.7484883E-01  0.1000000E-09  0.8758927E+00
  0.0000000E+00  0.0000000E+00  0.3750000E+01  0.1370000E-01  0.1000000E-09  0.1692916E-02  0.1000000E-09  0.9244320E-02  0.1000000E-09  0.1000000E-09  0.2548552E-01  0.7484875E-01  0.1000000E-09  0.8750285E+00
  0.0000000E+00  0.0000000E+00  0.3700000E+01  0.1370000E-01  0.1000000E-09  0.1727011E-02  0.1000000E-09  0.9408092E-02  0.1000000E-09  0.1000000E-09  0.2548576E-01  0.7484864E-01  0.1000000E-09  0.8748305E+00
  0.0000000E+00  0.0000000E+00  0.3650000E+01  0.1370000E-01  0.1000000E-09  0.1668047E-02  0.1000000E-09  0.9381571E-02  0.1000000E-09  0.1000000E-09  0.2548598E-01  0.7484855E-01  0.1000000E-09  0.8749158E+00
  0.0000000E+00  0.0000000E+00  0.3600000E+01  0.1370000E-01  0.1000000E-09  0.1711292E-02  0.1000000E-09  0.9414318E-02  0.1000000E-09  0.1000000E-09  0.2548625E-01  0.7484844E-01  0.1000000E-09  0.8748397E+00
  0.0000000E+00  0.0000000E+00  0.3550000E+01  0.1370000E-01  0.1000000E-09  0.1701831E-02  0.1000000E-09  0.9420705E-02  0.1000000E-09  0.1000000E-09  0.2548647E-01  0.7484834E-01  0.1000000E-09  0.8748427E+00
  0.0000000E+00  0.0000000E+00  0.3500000E+01  0.1370000E-01  0.1000000E-09  0.1702547E-02  0.1000000E-09  0.9337374E-02  0.1000000E-09  0.1000000E-09  0.2548640E-01  0.7484837E-01  0.1000000E-09  0.8749253E+00
  0.0000000E+00  0.0000000E+00  0.3450000E+01  0.1370000E-01  0.1000000E-09  0.1685796E-02  0.1000000E-09  0.9472318E-02  0.1000000E-09  0.1000000E-09  0.2548629E-01  0.7484842E-01  0.1000000E-09  0.8748072E+00
  0.0000000E+00  0.0000000E+00  0.3400000E+01  0.1370000E-01  0.1000000E-09  0.1701700E-02  0.1000000E-09  0.9308711E-02  0.1000000E-09  0.1000000E-09  0.2548599E-01  0.7484855E-01  0.1000000E-09  0.8749550E+00
  0.0000000E+00  0.0000000E+00  0.3350000E+01  0.1370000E-01  0.1000000E-09  0.1710618E-02  0.1000000E-09  0.9481138E-02  0.1000000E-09  0.1000000E-09  0.2548546E-01  0.7484879E-01  0.1000000E-09  0.8747740E+00
  0.0000000E+00  0.0000000E+00  0.3300000E+01  0.1370000E-01  0.1000000E-09  0.1693229E-02  0.1000000E-09  0.9335143E-02  0.1000000E-09  0.1000000E-09  0.2548436E-01  0.7484927E-01  0.1000000E-09  0.8749380E+00
  0.0000000E+00  0.0000000E+00  0.3250000E+01  0.1370000E-01  0.1000000E-09  0.1742258E-02  0.1000000E-09  0.9432268E-02  0.1000000E-09  0.1000000E-09  0.2548261E-01  0.7485004E-01  0.1000000E-09  0.8747928E+00
  0.0000000E+00  0.0000000E+00  0.3200000E+01  0.1370000E-01  0.1000000E-09  0.1671300E-02  0.1000000E-09  0.9456965E-02  0.1000000E-09  0.1000000E-09  0.2547884E-01  0.7485168E-01  0.1000000E-09  0.8748412E+00
  0.0000000E+00  0.0000000E+00  0.3150000E+01  0.1370000E-01  0.1000000E-09  0.1736679E-02  0.1000000E-09  0.9449358E-02  0.1000000E-09  0.1000000E-09  0.2547228E-01  0.7485455E-01  0.1000000E-09  0.8747871E+00
  0.0000000E+00  0.0000000E+00  0.3100000E+01  0.1370000E-01  0.1000000E-09  0.1687803E-02  0.1000000E-09  0.9386574E-02  0.1000000E-09  0.1000000E-09  0.2545587E-01  0.7486173E-01  0.1000000E-09  0.8749080E+00
  0.0000000E+00  0.0000000E+00  0.3050000E+01  0.1370000E-01  0.1000000E-09  0.1709357E-02  0.1000000E-09  0.9440919E-02  0.1000000E-09  0.1000000E-09  0.2544662E-01  0.7486589E-01  0.1000000E-09  0.8748372E+00
  0.0000000E+00  0.0000000E+00  0.3000000E+01  0.1370000E-01  0.1000000E-09  0.1721447E-02  0.1000000E-09  0.9317924E-02  0.1000000E-09  0.1000000E-09  0.2543554E-01  0.7487089E-01  0.1000000E-09  0.8749542E+00
  0.0000000E+00  0.0000000E+00  0.2950000E+01  0.1370000E-01  0.1000000E-09  0.1710546E-02  0.1000000E-09  0.9468552E-02  0.1000000E-09  0.1000000E-09  0.2541859E-01  0.7487877E-01  0.1000000E-09  0.8748235E+00
  0.0000000E+00  0.0000000E+00  0.2900000E+01  0.1370000E-01  0.1000000E-09  0.1733881E-02  0.1000000E-09  0.9399590E-02  0.1000000E-09  0.1000000E-09  0.2539457E-01  0.7489303E-01  0.1000000E-09  0.8748789E+00
  0.0000000E+00  0.0000000E+00  0.2850000E+01  0.1370000E-01  0.1000000E-09  0.1648191E-02  0.1000000E-09  0.9393140E-02  0.1000000E-09  0.1000000E-09  0.2536422E-01  0.7493849E-01  0.1000000E-09  0.8749560E+00
  0.0000000E+00  0.0000000E+00  0.2800000E+01  0.1370000E-01  0.1000000E-09  0.1669080E-02  0.4874909E-05  0.9523011E-02  0.1000000E-09  0.1000000E-09  0.2533229E-01  0.7499793E-01  0.1000000E-09  0.8747728E+00
  0.0000000E+00  0.0000000E+00  0.2750000E+01  0.1370000E-01  0.1000000E-09  0.7616190E-03  0.5605356E-03  0.9358912E-02  0.1000000E-09  0.1000000E-09  0.2530238E-01  0.7507288E-01  0.1000000E-09  0.8752437E+00
  0.0000000E+00  0.0000000E+00  0.2700000E+01  0.1370000E-01  0.1000000E-09  0.1000000E-09  0.1150572E-02  0.9518465E-02  0.1000000E-09  0.1000000E-09  0.2527655E-01  0.7511142E-01  0.1000000E-09  0.8752430E+00
  0.0000000E+00  0.0000000E+00  0.2650000E+01  0.1370000E-01  0.1000000E-09  0.1000000E-09  0.1143147E-02  0.9413203E-02  0.1000000E-09  0.1000000E-09  0.2525362E-01  0.7513785E-01  0.1000000E-09  0.8753522E+00
  0.0000000E+00  0.0000000E+00  0.2600000E+01  0.1370000E-01  0.1000000E-09  0.1000000E-09  0.1168411E-02  0.9495523E-02  0.1000000E-09  0.1000000E-09  0.2522906E-01  0.7513686E-01  0.1000000E-09  0.8752701E+00
  0.0000000E+00  0.0000000E+00  0.2550000E+01  0.1370000E-01  0.1000000E-09  0.1000000E-09  0.1119116E-02  0.9463569E-02  0.1000000E-09  0.1000000E-09  0.2520330E-01  0.7519421E-01  0.1000000E-09  0.8753198E+00
  0.0000000E+00  0.0000000E+00  0.2500000E+01  0.1370000E-01  0.1000000E-09  0.1000000E-09  0.1079872E-02  0.9433600E-02  0.1000000E-09  0.1000000E-09  0.2518151E-01  0.7526682E-01  0.1000000E-09  0.8753382E+00
  0.0000000E+00  0.0000000E+00  0.2450000E+01  0.1370000E-01  0.1000000E-09  0.1000000E-09  0.1102978E-02  0.9544776E-02  0.1000000E-09  0.1000000E-09  0.2516661E-01  0.7526935E-01  0.1000000E-09  0.8752163E+00
  0.0000000E+00  0.0000000E+00  0.2400000E+01  0.1370000E-01  0.1000000E-09  0.1000000E-09  0.1064602E-02  0.9537637E-02  0.1000000E-09  0.1000000E-09  0.2515385E-01  0.7531340E-01  0.1000000E-09  0.8752305E+00
  0.0000000E+00  0.0000000E+00  0.2350000E+01  0.1370000E-01  0.1000000E-09  0.1000000E-09  0.1013994E-02  0.9390335E-02  0.1000000E-09  0.1000000E-09  0.2514595E-01  0.7532927E-01  0.1000000E-09  0.8754204E+00
  0.0000000E+00  0.0000000E+00  0.2300000E+01  0.1370000E-01  0.1000000E-09  0.1000000E-09  0.1053471E-02  0.9596639E-02  0.1000000E-09  0.1000000E-09  0.2513902E-01  0.7533411E-01  0.1000000E-09  0.8751768E+00
  0.0000000E+00  0.0000000E+00  0.2250000E+01  0.1370000E-01  0.1000000E-09  0.1000000E-09  0.1012550E-02  0.9398279E-02  0.1000000E-09  0.1000000E-09  0.2513472E-01  0.7535042E-01  0.1000000E-09  0.8754040E+00
  0.0000000E+00  0.0000000E+00  0.2200000E+01  0.1370000E-01  0.1000000E-09  0.1000000E-09  0.1015365E-02  0.9442989E-02  0.1000000E-09  0.1000000E-09  0.2513343E-01  0.7536112E-01  0.1000000E-09  0.8753471E+00
  0.0000000E+00  0.0000000E+00  0.2150000E+01  0.1370000E-01  0.1000000E-09  0.1000000E-09  0.5314689E-03  0.9597720E-02  0.1000000E-09  0.1000000E-09  0.2513393E-01  0.7546277E-01  0.1000000E-09  0.8755741E+00
  0.0000000E+00  0.0000000E+00  0.2100000E+01  0.1370000E-01  0.1000000E-09  0.1000000E-09  0.1000000E-09  0.9462172E-02  0.1000000E-09  0.1000000E-09  0.2513482E-01  0.7547607E-01  0.1000000E-09  0.8762269E+00
  0.0000000E+00  0.0000000E+00  0.2050000E+01  0.1370000E-01  0.1000000E-09  0.1000000E-09  0.1000000E-09  0.9581988E-02  0.1000000E-09  0.1000000E-09  0.2513537E-01  0.7542059E-01  0.8267520E-05  0.8761538E+00
  0.0000000E+00  0.0000000E+00  0.2000000E+01  0.1370000E-01  0.1000000E-09  0.1000000E-09  0.1000000E-09  0.9555338E-02  0.1000000E-09  0.1000000E-09  0.2513459E-01  0.7532489E-01  0.3647098E-04  0.8762487E+00
  0.0000000E+00  0.0000000E+00  0.1950000E+01  0.1370000E-01  0.1000000E-09  0.1000000E-09  0.1000000E-09  0.9517144E-02  0.1000000E-09  0.1000000E-09  0.2513484E-01  0.7526051E-01  0.7034999E-04  0.8763172E+00
  0.0000000E+00  0.0000000E+00  0.1900000E+01  0.1370000E-01  0.1000000E-09  0.1000000E-09  0.1000000E-09  0.9611378E-02  0.1000000E-09  0.1000000E-09  0.2513540E-01  0.7519337E-01  0.1005828E-03  0.8762593E+00
  0.0000000E+00  0.0000000E+00  0.1850000E+01  0.1370000E-01  0.1000000E-09  0.1000000E-09  0.1000000E-09  0.9641302E-02  0.1000000E-09  0.1000000E-09  0.2513454E-01  0.7517539E-01  0.1293219E-03  0.8762195E+00
  0.0000000E+00  0.0000000E+00  0.1800000E+01  0.1370000E-01  0.1000000E-09  0.1000000E-09  0.1000000E-09  0.9532795E-02  0.1000000E-09  0.1000000E-09  0.2513378E-01  0.7508650E-01  0.1577960E-03  0.8763891E+00
  0.0000000E+00  0.0000000E+00  0.1750000E+01  0.1370000E-01  0.1000000E-09  0.1000000E-09  0.1000000E-09  0.9576882E-02  0.1000000E-09  0.1000000E-09  0.2513349E-01  0.7501037E-01  0.1916845E-03  0.8763876E+00
  0.0000000E+00  0.0000000E+00  0.1700000E+01  0.1370000E-01  0.1000000E-09  0.1000000E-09  0.1000000E-09  0.9525248E-02  0.1000000E-09  0.1000000E-09  0.2513449E-01  0.7494883E-01  0.2237966E-03  0.8764676E+00
  0.0000000E+00  0.0000000E+00  0.1650000E+01  0.1370000E-01  0.1000000E-09  0.1000000E-09  0.1000000E-09  0.9674159E-02  0.1000000E-09  0.1000000E-09  0.2513575E-01  0.7489991E-01  0.2531595E-03  0.8763370E+00
  0.0000000E+00  0.0000000E+00  0.1600000E+01  0.1370000E-01  0.1000000E-09  0.1000000E-09  0.1000000E-09  0.9552582E-02  0.1000000E-09  0.1000000E-09  0.2513462E-01  0.7482385E-01  0.2827380E-03  0.8765062E+00
  0.0000000E+00  0.0000000E+00  0.1550000E+01  0.1370000E-01  0.1000000E-09  0.1000000E-09  0.1000000E-09  0.9602896E-02  0.1000000E-09  0.1000000E-09  0.2513564E-01  0.7475688E-01  0.3145177E-03  0.8764901E+00
  0.0000000E+00  0.0000000E+00  0.1500000E+01  0.1370000E-01  0.1000000E-09  0.1000000E-09  0.1000000E-09  0.9613676E-02  0.1000000E-09  0.1000000E-09  0.2513356E-01  0.7472990E-01  0.3442038E-03  0.8764787E+00
  0.0000000E+00  0.0000000E+00  0.1450000E+01  0.1370000E-01  0.1000000E-09  0.1000000E-09  0.1000000E-09  0.9629042E-02  0.1000000E-09  0.1000000E-09  0.2513314E-01  0.7464306E-01  0.3735054E-03  0.8765212E+00
  0.0000000E+00  0.0000000E+00  0.1400000E+01  0.1370000E-01  0.1000000E-09  0.1000000E-09  0.1000000E-09  0.9560259E-02  0.1000000E-09  0.1000000E-09  0.2513397E-01  0.7457000E-01  0.4071065E-03  0.8766287E+00
  0.0000000E+00  0.0000000E+00  0.1350000E+01  0.1370000E-01  0.1000000E-09  0.1000000E-09  0.1000000E-09  0.9613852E-02  0.1000000E-09  0.1000000E-09  0.2513348E-01  0.7451900E-01  0.4379726E-03  0.8765957E+00
  0.0000000E+00  0.0000000E+00  0.1300000E+01  0.1370000E-01  0.1000000E-09  0.1000000E-09  0.1000000E-09  0.9654420E-02  0.1000000E-09  0.1000000E-09  0.2513470E-01  0.7445470E-01  0.4659725E-03  0.8765902E+00
  0.0000000E+00  0.0000000E+00  0.1250000E+01  0.1370000E-01  0.1000000E-09  0.1000000E-09  0.1000000E-09  0.9612571E-02  0.1000000E-09  0.1000000E-09  0.2513301E-01  0.7438511E-01  0.4969449E-03  0.8766724E+00
  0.0000000E+00  0.0000000E+00  0.1200000E+01  0.1370000E-01  0.1000000E-09  0.1000000E-09  0.1000000E-09  0.9672676E-02  0.1000000E-09  0.1000000E-09  0.2513398E-01  0.7433143E-01  0.5282299E-03  0.8766337E+00
  0.0000000E+00  0.0000000E+00  0.1150000E+01  0.1370000E-01  0.1000000E-09  0.1000000E-09  0.1000000E-09  0.9639813E-02  0.1000000E-09  0.1000000E-09  0.2513271E-01  0.7426850E-01  0.5585243E-03  0.8767005E+00
  0.0000000E+00  0.0000000E+00  0.1100000E+01  0.1370000E-01  0.1000000E-09  0.1000000E-09  0.1000000E-09  0.9615717E-02  0.1000000E-09  0.1000000E-09  0.2513250E-01  0.7419380E-01  0.5908514E-03  0.8767671E+00
  0.0000000E+00  0.0000000E+00  0.1050000E+01  0.1370000E-01  0.1000000E-09  0.1000000E-09  0.1000000E-09  0.9689751E-02  0.1000000E-09  0.1000000E-09  0.2513238E-01  0.7413461E-01  0.6234555E-03  0.8767198E+00
  0.0000000E+00  0.0000000E+00  0.1000000E+01  0.1370000E-01  0.1000000E-09  0.1000000E-09  0.1000000E-09  0.9702834E-02  0.1000000E-09  0.1000000E-09  0.2513192E-01  0.7409076E-01  0.6547041E-03  0.8767198E+00
  0.0000000E+00  0.0000000E+00  0.9500000E+00  0.1370000E-01  0.1000000E-09  0.1000000E-09  0.1000000E-09  0.9652491E-02  0.1000000E-09  0.1000000E-09  0.2513195E-01  0.7403175E-01  0.6863429E-03  0.8767975E+00
  0.0000000E+00  0.0000000E+00  0.9000000E+00  0.1370000E-01  0.1000000E-09  0.1000000E-09  0.1000000E-09  0.9676255E-02  0.1000000E-09  0.1000000E-09  0.2513184E-01  0.7398517E-01  0.7229033E-03  0.8767838E+00
  0.0000000E+00  0.0000000E+00  0.8500000E+00  0.1370000E-01  0.1000000E-09  0.1000000E-09  0.1000000E-09  0.9621651E-02  0.1000000E-09  0.1000000E-09  0.2513186E-01  0.7384489E-01  0.7648287E-03  0.8769368E+00
  0.0000000E+00  0.0000000E+00  0.8000000E+00  0.1355907E-01  0.1000000E-09  0.1000000E-09  0.1000000E-09  0.9668972E-02  0.1000000E-09  0.1000000E-09  0.2513111E-01  0.7368174E-01  0.8258422E-03  0.8771333E+00
  0.0000000E+00  0.0000000E+00  0.7500000E+00  0.1130474E-01  0.1000000E-09  0.1000000E-09  0.1000000E-09  0.9011329E-02  0.1000000E-09  0.1000000E-09  0.2513061E-01  0.7351887E-01  0.9079283E-03  0.8801265E+00
  0.0000000E+00  0.0000000E+00  0.7000000E+00  0.8647551E-02  0.1000000E-09  0.1000000E-09  0.1000000E-09  0.8712875E-02  0.1000000E-09  0.1601673E-02  0.2513001E-01  0.7336633E-01  0.9799242E-03  0.8815616E+00
  0.0000000E+00  0.0000000E+00  0.6500000E+00  0.7814641E-02  0.1000000E-09  0.1000000E-09  0.1000000E-09  0.9995198E-02  0.1000000E-09  0.4237083E-02  0.2512947E-01  0.7325234E-01  0.1057371E-02  0.8785139E+00
  0.0000000E+00  0.0000000E+00  0.6000000E+00  0.7491627E-02  0.1000000E-09  0.1000000E-09  0.1000000E-09  0.1057305E-01  0.1000000E-09  0.4031764E-02  0.2512897E-01  0.7292254E-01  0.1106571E-02  0.8787455E+00
  0.0000000E+00  0.0000000E+00  0.5500000E+00  0.7471624E-02  0.1000000E-09  0.1000000E-09  0.1000000E-09  0.1021821E-01  0.1000000E-09  0.4496165E-02  0.2512896E-01  0.7291613E-01  0.1139471E-02  0.8786294E+00
  0.0000000E+00  0.0000000E+00  0.5000000E+00  0.7457713E-02  0.1000000E-09  0.1000000E-09  0.1000000E-09  0.1025437E-01  0.1000000E-09  0.4777759E-02  0.2512895E-01  0.7291280E-01  0.1145156E-02  0.8783232E+00
  0.0000000E+00  0.0000000E+00  0.4500000E+00  0.7456462E-02  0.1000000E-09  0.1000000E-09  0.1000000E-09  0.1027913E-01  0.1000000E-09  0.5049057E-02  0.2512895E-01  0.7291088E-01  0.1146138E-02  0.8780294E+00
  0.0000000E+00  0.0000000E+00  0.4000000E+00  0.7456113E-02  0.1000000E-09  0.1000000E-09  0.1000000E-09  0.1029509E-01  0.1000000E-09  0.5444052E-02  0.2512895E-01  0.7290973E-01  0.1146644E-02  0.8776194E+00
  0.0000000E+00  0.0000000E+00  0.3500000E+00  0.7455918E-02  0.1000000E-09  0.1000000E-09  0.1000000E-09  0.9998705E-02  0.1000000E-09  0.6010120E-02  0.2512895E-01  0.7290859E-01  0.1146880E-02  0.8773508E+00
  0.0000000E+00  0.0000000E+00  0.3000000E+00  0.7455798E-02  0.1000000E-09  0.1000000E-09  0.1000000E-09  0.2597213E-02  0.1000000E-09  0.6876965E-02  0.2512894E-01  0.7290676E-01  0.1146998E-02  0.8838873E+00
  0.0000000E+00  0.0000000E+00  0.2500000E+00  0.7455717E-02  0.1000000E-09  0.1000000E-09  0.1000000E-09  0.1000000E-09  0.1000000E-09  0.7854943E-02  0.2512894E-01  0.7290632E-01  0.1118631E-02  0.8855354E+00
  0.0000000E+00  0.0000000E+00  0.2000000E+00  0.7455665E-02  0.1000000E-09  0.1000000E-09  0.1000000E-09  0.1000000E-09  0.1000000E-09  0.9568913E-02  0.2512894E-01  0.7290380E-01  0.1031108E-02  0.8839116E+00
  0.0000000E+00  0.0000000E+00  0.1500000E+00  0.7455634E-02  0.1000000E-09  0.1000000E-09  0.1000000E-09  0.1000000E-09  0.1000000E-09  0.1170615E-01  0.2512958E-01  0.7293051E-01  0.8118541E-03  0.8819663E+00
  0.0000000E+00  0.0000000E+00  0.1000000E+00  0.7455618E-02  0.1000000E-09  0.1000000E-09  0.1000000E-09  0.1000000E-09  0.1000000E-09  0.1190002E-01  0.2512994E-01  0.7314327E-01  0.1000000E-09  0.8823711E+00
  0.0000000E+00  0.0000000E+00  0.5000000E-01  0.7455614E-02  0.1000000E-09  0.1000000E-09  0.1000000E-09  0.1000000E-09  0.1000000E-09  0.1342171E-01  0.2512989E-01  0.7317840E-01  0.1000000E-09  0.8808144E+00
  0.0000000E+00  0.0000000E+00  0.0000000E+00  0.7455614E-02  0.1000000E-09  0.1000000E-09  0.1000000E-09  0.1000000E-09  0.1000000E-09  0.1667108E-01  0.2513034E-01  0.7343373E-01  0.1000000E-09  0.8773092E+00
