title = "dataset amd_ex"
variables = "x", "y", "z","ca+2","k+1","cl-1","h4sio4","al+3","co3-2","h+1","o2(aq)","fe+2","so4-2","fe+3","hs-1"
zone t = "T_j, T =  1.000E+01 years", i =  101, j =    1, k =    1,  f=point
  0.0000000E+00  0.0000000E+00  0.5000000E+01  0.1686273E-01  0.2467471E-02  0.1798017E-03  0.5572189E-03  0.2581969E-09  0.1060541E-01  0.1480004E-01  0.1940570E-67  0.1692689E-03  0.1615424E-01  0.1767652E-11  0.2450823E-11
  0.0000000E+00  0.0000000E+00  0.4950000E+01  0.1686268E-01  0.2485737E-02  0.1789538E-03  0.5593386E-03  0.2566661E-09  0.1062824E-01  0.1483552E-01  0.1942234E-67  0.1692624E-03  0.1615758E-01  0.1764734E-11  0.2450542E-11
  0.0000000E+00  0.0000000E+00  0.4900000E+01  0.1686257E-01  0.2534881E-02  0.1767121E-03  0.5650522E-03  0.2526316E-09  0.1069026E-01  0.1493193E-01  0.1946740E-67  0.1692453E-03  0.1616656E-01  0.1756872E-11  0.2449776E-11
  0.0000000E+00  0.0000000E+00  0.4850000E+01  0.1686261E-01  0.2605774E-02  0.1735928E-03  0.5733248E-03  0.2470196E-09  0.1078148E-01  0.1507389E-01  0.1953339E-67  0.1692222E-03  0.1617944E-01  0.1745474E-11  0.2448637E-11
  0.0000000E+00  0.0000000E+00  0.4800000E+01  0.1686299E-01  0.2692796E-02  0.1699596E-03  0.5835315E-03  0.2404478E-09  0.1089674E-01  0.1525349E-01  0.1961629E-67  0.1691967E-03  0.1619513E-01  0.1731351E-11  0.2447171E-11
  0.0000000E+00  0.0000000E+00  0.4750000E+01  0.1686396E-01  0.2792478E-02  0.1660673E-03  0.5952933E-03  0.2333224E-09  0.1103385E-01  0.1546747E-01  0.1971420E-67  0.1691719E-03  0.1621290E-01  0.1714942E-11  0.2445382E-11
  0.0000000E+00  0.0000000E+00  0.4700000E+01  0.1686581E-01  0.2902651E-02  0.1620923E-03  0.6083759E-03  0.2259137E-09  0.1119249E-01  0.1571552E-01  0.1982657E-67  0.1691509E-03  0.1623223E-01  0.1696472E-11  0.2443251E-11
  0.0000000E+00  0.0000000E+00  0.4650000E+01  0.1686883E-01  0.3021919E-02  0.1581547E-03  0.6226254E-03  0.2184084E-09  0.1137356E-01  0.1599926E-01  0.1995367E-67  0.1691366E-03  0.1625272E-01  0.1676033E-11  0.2440740E-11
  0.0000000E+00  0.0000000E+00  0.4600000E+01  0.1687336E-01  0.3149334E-02  0.1543349E-03  0.6379301E-03  0.2109419E-09  0.1157883E-01  0.1632169E-01  0.2009628E-67  0.1691323E-03  0.1627405E-01  0.1653654E-11  0.2437800E-11
  0.0000000E+00  0.0000000E+00  0.4550000E+01  0.1687976E-01  0.3284198E-02  0.1506847E-03  0.6541963E-03  0.2036181E-09  0.1181070E-01  0.1668686E-01  0.2025553E-67  0.1691412E-03  0.1629588E-01  0.1629330E-11  0.2434375E-11
  0.0000000E+00  0.0000000E+00  0.4500000E+01  0.1688844E-01  0.3425948E-02  0.1472356E-03  0.6713342E-03  0.1965200E-09  0.1207209E-01  0.1709970E-01  0.2043274E-67  0.1691668E-03  0.1631791E-01  0.1603051E-11  0.2430406E-11
  0.0000000E+00  0.0000000E+00  0.4450000E+01  0.1689980E-01  0.3574085E-02  0.1440051E-03  0.6892500E-03  0.1897164E-09  0.1236633E-01  0.1756587E-01  0.2062937E-67  0.1692129E-03  0.1633982E-01  0.1574820E-11  0.2425830E-11
  0.0000000E+00  0.0000000E+00  0.4400000E+01  0.1691430E-01  0.3728134E-02  0.1410007E-03  0.7078418E-03  0.1832651E-09  0.1269715E-01  0.1809173E-01  0.2084691E-67  0.1692833E-03  0.1636128E-01  0.1544662E-11  0.2420588E-11
  0.0000000E+00  0.0000000E+00  0.4350000E+01  0.1693238E-01  0.3887629E-02  0.1382227E-03  0.7269980E-03  0.1772150E-09  0.1306861E-01  0.1868431E-01  0.2108684E-67  0.1693820E-03  0.1638196E-01  0.1512635E-11  0.2414623E-11
  0.0000000E+00  0.0000000E+00  0.4300000E+01  0.1695452E-01  0.4052095E-02  0.1356668E-03  0.7465979E-03  0.1716076E-09  0.1348511E-01  0.1935124E-01  0.2135061E-67  0.1695130E-03  0.1640152E-01  0.1478833E-11  0.2407884E-11
  0.0000000E+00  0.0000000E+00  0.4250000E+01  0.1698116E-01  0.4221053E-02  0.1333257E-03  0.7665136E-03  0.1664775E-09  0.1395130E-01  0.2010074E-01  0.2163949E-67  0.1696804E-03  0.1641961E-01  0.1443395E-11  0.2400330E-11
  0.0000000E+00  0.0000000E+00  0.4200000E+01  0.1701276E-01  0.4394015E-02  0.1311895E-03  0.7866123E-03  0.1618537E-09  0.1447210E-01  0.2094157E-01  0.2195463E-67  0.1698880E-03  0.1643592E-01  0.1406496E-11  0.2391928E-11
  0.0000000E+00  0.0000000E+00  0.4150000E+01  0.1704973E-01  0.4570489E-02  0.1292475E-03  0.8067595E-03  0.1577597E-09  0.1505259E-01  0.2188294E-01  0.2229693E-67  0.1701394E-03  0.1645013E-01  0.1368352E-11  0.2382658E-11
  0.0000000E+00  0.0000000E+00  0.4100000E+01  0.1709248E-01  0.4749981E-02  0.1274879E-03  0.8268223E-03  0.1542149E-09  0.1569801E-01  0.2293444E-01  0.2266703E-67  0.1704380E-03  0.1646194E-01  0.1329213E-11  0.2372515E-11
  0.0000000E+00  0.0000000E+00  0.4050000E+01  0.1714135E-01  0.4932003E-02  0.1258987E-03  0.8466731E-03  0.1512345E-09  0.1641363E-01  0.2410593E-01  0.2306527E-67  0.1707869E-03  0.1647111E-01  0.1289352E-11  0.2361507E-11
  0.0000000E+00  0.0000000E+00  0.4000000E+01  0.1719668E-01  0.5116071E-02  0.1244679E-03  0.8661924E-03  0.1488309E-09  0.1720468E-01  0.2540737E-01  0.2349169E-67  0.1711892E-03  0.1647747E-01  0.1249065E-11  0.2349653E-11
  0.0000000E+00  0.0000000E+00  0.3950000E+01  0.1725926E-01  0.5301715E-02  0.1231836E-03  0.8852718E-03  0.1470167E-09  0.1807618E-01  0.2684865E-01  0.2394734E-67  0.1716626E-03  0.1648153E-01  0.1208720E-11  0.2336865E-11
  0.0000000E+00  0.0000000E+00  0.3900000E+01  0.1733716E-01  0.5488480E-02  0.1220343E-03  0.9038161E-03  0.1458912E-09  0.1903028E-01  0.2843937E-01  0.2446935E-67  0.1726903E-03  0.1649425E-01  0.1170949E-11  0.2319309E-11
  0.0000000E+00  0.0000000E+00  0.3850000E+01  0.1749170E-01  0.5675930E-02  0.1210089E-03  0.9217445E-03  0.1485244E-09  0.1998201E-01  0.3018861E-01  0.2642664E-67  0.1958617E-03  0.1668780E-01  0.1250565E-11  0.2141959E-11
  0.0000000E+00  0.0000000E+00  0.3800000E+01  0.1604599E-01  0.5863648E-02  0.1200966E-03  0.9389922E-03  0.7188386E-09  0.1831002E-01  0.3210463E-01  0.9515710E-67  0.1587009E-02  0.1935642E-01  0.4160161E-11  0.5619304E-12
  0.0000000E+00  0.0000000E+00  0.3750000E+01  0.1275055E-01  0.6051256E-02  0.1192876E-03  0.9555483E-03  0.4160941E-07  0.1780087E-01  0.3419446E-01  0.4790581E-66  0.1818358E-01  0.3430488E-01  0.1562966E-10  0.1264672E-12
  0.0000000E+00  0.0000000E+00  0.3700000E+01  0.1190565E-01  0.6238387E-02  0.1185721E-03  0.9713791E-03  0.1262769E-06  0.1881297E-01  0.3646377E-01  0.7081338E-66  0.3272901E-01  0.4822112E-01  0.2154941E-10  0.9370806E-13
  0.0000000E+00  0.0000000E+00  0.3650000E+01  0.1147672E-01  0.6424696E-02  0.1179414E-03  0.9864392E-03  0.2356664E-06  0.1999898E-01  0.3891657E-01  0.8749685E-66  0.4460202E-01  0.5979844E-01  0.2530957E-10  0.8079152E-13
  0.0000000E+00  0.0000000E+00  0.3600000E+01  0.1119938E-01  0.6609864E-02  0.1173871E-03  0.1000703E-02  0.3648474E-06  0.2130120E-01  0.4155467E-01  0.1008500E-65  0.5441168E-01  0.6943995E-01  0.2783501E-10  0.7359336E-13
  0.0000000E+00  0.0000000E+00  0.3550000E+01  0.1100177E-01  0.6793599E-02  0.1169015E-03  0.1014142E-02  0.5122401E-06  0.2270666E-01  0.4437741E-01  0.1120211E-65  0.6256322E-01  0.7749153E-01  0.2956085E-10  0.6893032E-13
  0.0000000E+00  0.0000000E+00  0.3500000E+01  0.1085404E-01  0.6975306E-02  0.1164773E-03  0.1025741E-02  0.6756290E-06  0.2420914E-01  0.4738172E-01  0.1216074E-65  0.6933742E-01  0.8420844E-01  0.3072412E-10  0.6565102E-13
  0.0000000E+00  0.0000000E+00  0.3450000E+01  0.1074068E-01  0.7154502E-02  0.1161080E-03  0.1034740E-02  0.8542644E-06  0.2580333E-01  0.5056138E-01  0.1299717E-65  0.7495436E-01  0.8979726E-01  0.3147569E-10  0.6322396E-13
  0.0000000E+00  0.0000000E+00  0.3400000E+01  0.1065229E-01  0.7330839E-02  0.1157876E-03  0.1040703E-02  0.1048989E-05  0.2748322E-01  0.5390685E-01  0.1373591E-65  0.7959806E-01  0.9443363E-01  0.3192109E-10  0.6136387E-13
  0.0000000E+00  0.0000000E+00  0.3350000E+01  0.1058272E-01  0.7503973E-02  0.1155105E-03  0.1043114E-02  0.1261848E-05  0.2924156E-01  0.5740521E-01  0.1439457E-65  0.8342490E-01  0.9826842E-01  0.3213786E-10  0.5990162E-13
  0.0000000E+00  0.0000000E+00  0.3300000E+01  0.1052763E-01  0.7673480E-02  0.1152717E-03  0.1041137E-02  0.1496796E-05  0.3106973E-01  0.6104030E-01  0.1498619E-65  0.8656757E-01  0.1014303E+00  0.3218452E-10  0.5872977E-13
  0.0000000E+00  0.0000000E+00  0.3250000E+01  0.1048390E-01  0.7838783E-02  0.1150665E-03  0.1033388E-02  0.1761078E-05  0.3295765E-01  0.6479274E-01  0.1552065E-65  0.8913811E-01  0.1040283E+00  0.3210584E-10  0.5777654E-13
  0.0000000E+00  0.0000000E+00  0.3200000E+01  0.1044918E-01  0.7999058E-02  0.1148910E-03  0.1017656E-02  0.2067824E-05  0.3489391E-01  0.6864032E-01  0.1600554E-65  0.9123079E-01  0.1061543E+00  0.3193638E-10  0.5699200E-13
  0.0000000E+00  0.0000000E+00  0.3150000E+01  0.1042168E-01  0.8153105E-02  0.1147413E-03  0.9905173E-03  0.2441130E-05  0.3686592E-01  0.7255836E-01  0.1644677E-65  0.9292485E-01  0.1078853E+00  0.3170291E-10  0.5634028E-13
  0.0000000E+00  0.0000000E+00  0.3100000E+01  0.1040004E-01  0.8299166E-02  0.1146141E-03  0.9467880E-03  0.2926530E-05  0.3886020E-01  0.7652034E-01  0.1684903E-65  0.9428699E-01  0.1092862E+00  0.3142631E-10  0.5579485E-13
  0.0000000E+00  0.0000000E+00  0.3050000E+01  0.1038316E-01  0.8434691E-02  0.1145065E-03  0.8788278E-03  0.3615613E-05  0.4086275E-01  0.8049857E-01  0.1721614E-65  0.9537348E-01  0.1104111E+00  0.3112273E-10  0.5533554E-13
  0.0000000E+00  0.0000000E+00  0.3000000E+01  0.1037020E-01  0.8556113E-02  0.1144158E-03  0.7758635E-03  0.4712994E-05  0.4285932E-01  0.8446494E-01  0.1755128E-65  0.9623198E-01  0.1113055E+00  0.3080472E-10  0.5494662E-13
  0.0000000E+00  0.0000000E+00  0.2950000E+01  0.1036048E-01  0.8658908E-02  0.1143397E-03  0.6241854E-03  0.6786145E-05  0.4483545E-01  0.8839078E-01  0.1785735E-65  0.9690257E-01  0.1120076E+00  0.3048143E-10  0.5461549E-13
  0.0000000E+00  0.0000000E+00  0.2900000E+01  0.1035348E-01  0.8739122E-02  0.1142761E-03  0.4117153E-03  0.1242512E-04  0.4677331E-01  0.9224117E-01  0.1813942E-65  0.9741555E-01  0.1125495E+00  0.3015354E-10  0.5433089E-13
  0.0000000E+00  0.0000000E+00  0.2850000E+01  0.1034896E-01  0.8803426E-02  0.1142231E-03  0.1581935E-03  0.4503095E-04  0.4861803E-01  0.9590933E-01  0.1841118E-65  0.9775829E-01  0.1129581E+00  0.2978870E-10  0.5408493E-13
  0.0000000E+00  0.0000000E+00  0.2800000E+01  0.1034782E-01  0.8908259E-02  0.1141793E-03  0.3262060E-04  0.2452905E-03  0.5011617E-01  0.9888883E-01  0.1862947E-65  0.9771423E-01  0.1132572E+00  0.2937580E-10  0.5395279E-13
  0.0000000E+00  0.0000000E+00  0.2750000E+01  0.1034785E-01  0.9051507E-02  0.1141431E-03  0.2828394E-04  0.7159126E-03  0.5091816E-01  0.1008485E+00  0.2197504E-65  0.9696562E-01  0.1134640E+00  0.2443340E-10  0.5194638E-13
  0.0000000E+00  0.0000000E+00  0.2700000E+01  0.1050996E-01  0.9207700E-02  0.1141135E-03  0.6839244E-04  0.1049213E-01  0.3734627E-01  0.7468611E-01  0.3892029E-65  0.8186181E-01  0.1137554E+00  0.1457563E-10  0.4801897E-13
  0.0000000E+00  0.0000000E+00  0.2650000E+01  0.1065106E-01  0.9351001E-02  0.1140893E-03  0.7502303E-04  0.1805789E-01  0.2740978E-01  0.5495780E-01  0.4136632E-65  0.7043462E-01  0.1139620E+00  0.1257775E-10  0.5010135E-13
  0.0000000E+00  0.0000000E+00  0.2600000E+01  0.1076662E-01  0.9491364E-02  0.1140697E-03  0.7763925E-04  0.2407205E-01  0.1972447E-01  0.3966323E-01  0.4196244E-65  0.6131806E-01  0.1140904E+00  0.1102316E-10  0.5272256E-13
  0.0000000E+00  0.0000000E+00  0.2550000E+01  0.1086239E-01  0.9629906E-02  0.1140539E-03  0.7919044E-04  0.2886706E-01  0.1376645E-01  0.2779464E-01  0.4185915E-65  0.5400243E-01  0.1141560E+00  0.9754464E-11  0.5553025E-13
  0.0000000E+00  0.0000000E+00  0.2500000E+01  0.1094094E-01  0.9766919E-02  0.1140412E-03  0.8016588E-04  0.3264631E-01  0.9221885E-02  0.1873683E-01  0.4144919E-65  0.4818427E-01  0.1141694E+00  0.8727173E-11  0.5834504E-13
  0.0000000E+00  0.0000000E+00  0.2450000E+01  0.1100497E-01  0.9903920E-02  0.1140310E-03  0.8076715E-04  0.3561413E-01  0.5791304E-02  0.1189697E-01  0.4091665E-65  0.4355905E-01  0.1141391E+00  0.7898627E-11  0.6106420E-13
  0.0000000E+00  0.0000000E+00  0.2400000E+01  0.1105775E-01  0.1004446E-01  0.1140227E-03  0.8113518E-04  0.3797358E-01  0.3252060E-02  0.6833272E-02  0.4035013E-65  0.3982100E-01  0.1140707E+00  0.7221992E-11  0.6366045E-13
  0.0000000E+00  0.0000000E+00  0.2350000E+01  0.1110101E-01  0.1018916E-01  0.1140160E-03  0.8133014E-04  0.3982787E-01  0.1876145E-02  0.4089776E-02  0.3979970E-65  0.3681778E-01  0.1139687E+00  0.6674033E-11  0.6606960E-13
  0.0000000E+00  0.0000000E+00  0.2300000E+01  0.1113487E-01  0.1033481E-01  0.1140108E-03  0.8137761E-04  0.4121460E-01  0.1347027E-02  0.3035334E-02  0.3930730E-65  0.3450006E-01  0.1138396E+00  0.6248245E-11  0.6817043E-13
  0.0000000E+00  0.0000000E+00  0.2250000E+01  0.1115982E-01  0.1047855E-01  0.1140070E-03  0.8190586E-04  0.4218795E-01  0.1118356E-02  0.2580066E-02  0.3890909E-65  0.3279376E-01  0.1136912E+00  0.5933654E-11  0.6987308E-13
  0.0000000E+00  0.0000000E+00  0.2200000E+01  0.1117756E-01  0.1062162E-01  0.1140043E-03  0.9167408E-04  0.4282151E-01  0.9964581E-03  0.2338952E-02  0.3866116E-65  0.3159327E-01  0.1135317E+00  0.5716083E-11  0.7113707E-13
  0.0000000E+00  0.0000000E+00  0.2150000E+01  0.1120372E-01  0.1081890E-01  0.1140026E-03  0.2755855E-03  0.4312952E-01  0.9191958E-03  0.2336714E-02  0.4412915E-65  0.3078024E-01  0.1133816E+00  0.6136768E-11  0.6961213E-13
  0.0000000E+00  0.0000000E+00  0.2100000E+01  0.1165319E-01  0.1138749E-01  0.1140015E-03  0.1581906E-02  0.3371646E-01  0.8618184E-03  0.3062121E-01  0.4019803E-64  0.3024389E-01  0.1136591E+00  0.2733139E-09  0.3995771E-13
  0.0000000E+00  0.0000000E+00  0.2050000E+01  0.1197672E-01  0.1161772E-01  0.1140008E-03  0.1879661E-02  0.2735305E-01  0.8198321E-03  0.4976585E-01  0.5316078E-64  0.2989345E-01  0.1138164E+00  0.4788873E-09  0.3723752E-13
  0.0000000E+00  0.0000000E+00  0.2000000E+01  0.1220500E-01  0.1163810E-01  0.1140004E-03  0.1888131E-02  0.2293357E-01  0.7856653E-03  0.6307946E-01  0.6065664E-64  0.2966175E-01  0.1138850E+00  0.6251755E-09  0.3601608E-13
  0.0000000E+00  0.0000000E+00  0.1950000E+01  0.1236249E-01  0.1152494E-01  0.1140002E-03  0.1887650E-02  0.1994624E-01  0.7565317E-03  0.7210671E-01  0.6525507E-64  0.2950299E-01  0.1138889E+00  0.7250038E-09  0.3535488E-13
  0.0000000E+00  0.0000000E+00  0.1900000E+01  0.1247110E-01  0.1132864E-01  0.1140001E-03  0.1887200E-02  0.1795736E-01  0.7307682E-03  0.7815256E-01  0.6815282E-64  0.2938782E-01  0.1138495E+00  0.7918098E-09  0.3496723E-13
  0.0000000E+00  0.0000000E+00  0.1850000E+01  0.1254841E-01  0.1108284E-01  0.1140001E-03  0.1886944E-02  0.1661372E-01  0.7073263E-03  0.8227521E-01  0.7005066E-64  0.2929837E-01  0.1137838E+00  0.8371258E-09  0.3472480E-13
  0.0000000E+00  0.0000000E+00  0.1800000E+01  0.1260669E-01  0.1080894E-01  0.1140000E-03  0.1886805E-02  0.1566420E-01  0.6855171E-03  0.8522480E-01  0.7136934E-64  0.2922410E-01  0.1137032E+00  0.8692826E-09  0.3456169E-13
  0.0000000E+00  0.0000000E+00  0.1750000E+01  0.1265380E-01  0.1051987E-01  0.1140000E-03  0.1886735E-02  0.1494653E-01  0.6648719E-03  0.8748499E-01  0.7235692E-64  0.2915898E-01  0.1136149E+00  0.8936916E-09  0.3444236E-13
  0.0000000E+00  0.0000000E+00  0.1700000E+01  0.1269449E-01  0.1022304E-01  0.1140000E-03  0.1886706E-02  0.1436187E-01  0.6450628E-03  0.8934987E-01  0.7315665E-64  0.2909956E-01  0.1135230E+00  0.9136530E-09  0.3434736E-13
  0.0000000E+00  0.0000000E+00  0.1650000E+01  0.1273154E-01  0.9922519E-02  0.1140000E-03  0.1886697E-02  0.1385225E-01  0.6258541E-03  0.9099162E-01  0.7384978E-64  0.2904383E-01  0.1134297E+00  0.9311004E-09  0.3426603E-13
  0.0000000E+00  0.0000000E+00  0.1600000E+01  0.1276655E-01  0.9620484E-02  0.1140000E-03  0.1886697E-02  0.1338454E-01  0.6070734E-03  0.9250857E-01  0.7448174E-64  0.2899063E-01  0.1133362E+00  0.9471362E-09  0.3419257E-13
  0.0000000E+00  0.0000000E+00  0.1550000E+01  0.1280040E-01  0.9318052E-02  0.1140000E-03  0.1886704E-02  0.1294013E-01  0.5885925E-03  0.9395575E-01  0.7507756E-64  0.2893921E-01  0.1132429E+00  0.9623753E-09  0.3412385E-13
  0.0000000E+00  0.0000000E+00  0.1500000E+01  0.1283361E-01  0.9015750E-02  0.1140000E-03  0.1886714E-02  0.1250869E-01  0.5703152E-03  0.9536371E-01  0.7565099E-64  0.2888907E-01  0.1131499E+00  0.9771565E-09  0.3405820E-13
  0.0000000E+00  0.0000000E+00  0.1450000E+01  0.1286646E-01  0.8713809E-02  0.1140000E-03  0.1886723E-02  0.1208449E-01  0.5521684E-03  0.9674929E-01  0.7620954E-64  0.2883987E-01  0.1130572E+00  0.9916641E-09  0.3399475E-13
  0.0000000E+00  0.0000000E+00  0.1400000E+01  0.1289910E-01  0.8412315E-02  0.1140000E-03  0.1886734E-02  0.1166443E-01  0.5340968E-03  0.9812157E-01  0.7675722E-64  0.2879135E-01  0.1129647E+00  0.1005995E-08  0.3393305E-13
  0.0000000E+00  0.0000000E+00  0.1350000E+01  0.1293162E-01  0.8111269E-02  0.1140000E-03  0.1886745E-02  0.1124680E-01  0.5160585E-03  0.9948560E-01  0.7729628E-64  0.2874330E-01  0.1128722E+00  0.1020202E-08  0.3387286E-13
  0.0000000E+00  0.0000000E+00  0.1300000E+01  0.1296406E-01  0.7810642E-02  0.1140000E-03  0.1886757E-02  0.1083063E-01  0.4980217E-03  0.1008442E+00  0.7782799E-64  0.2869558E-01  0.1127797E+00  0.1034312E-08  0.3381407E-13
  0.0000000E+00  0.0000000E+00  0.1250000E+01  0.1299647E-01  0.7510388E-02  0.1140000E-03  0.1886767E-02  0.1041540E-01  0.4799629E-03  0.1021990E+00  0.7835310E-64  0.2864808E-01  0.1126871E+00  0.1048341E-08  0.3375659E-13
  0.0000000E+00  0.0000000E+00  0.1200000E+01  0.1302885E-01  0.7210476E-02  0.1140000E-03  0.1886780E-02  0.1000082E-01  0.4618648E-03  0.1035509E+00  0.7887209E-64  0.2860076E-01  0.1125944E+00  0.1062296E-08  0.3370035E-13
  0.0000000E+00  0.0000000E+00  0.1150000E+01  0.1306122E-01  0.6910857E-02  0.1140000E-03  0.1886790E-02  0.9586707E-02  0.4437154E-03  0.1049006E+00  0.7938540E-64  0.2855362E-01  0.1125017E+00  0.1076188E-08  0.3364528E-13
  0.0000000E+00  0.0000000E+00  0.1100000E+01  0.1309358E-01  0.6611501E-02  0.1140000E-03  0.1886801E-02  0.9172965E-02  0.4255064E-03  0.1062488E+00  0.7989341E-64  0.2850671E-01  0.1124091E+00  0.1090025E-08  0.3359129E-13
  0.0000000E+00  0.0000000E+00  0.1050000E+01  0.1312592E-01  0.6312382E-02  0.1140000E-03  0.1886812E-02  0.8759542E-02  0.4072330E-03  0.1075959E+00  0.8039655E-64  0.2846017E-01  0.1123170E+00  0.1103818E-08  0.3353825E-13
  0.0000000E+00  0.0000000E+00  0.1000000E+01  0.1315825E-01  0.6013470E-02  0.1140000E-03  0.1886823E-02  0.8346389E-02  0.3888929E-03  0.1089426E+00  0.8089533E-64  0.2841419E-01  0.1122259E+00  0.1117583E-08  0.3348599E-13
  0.0000000E+00  0.0000000E+00  0.9500000E+00  0.1319057E-01  0.5714740E-02  0.1140000E-03  0.1886832E-02  0.7933463E-02  0.3704858E-03  0.1102896E+00  0.8139031E-64  0.2836902E-01  0.1121362E+00  0.1131338E-08  0.3343433E-13
  0.0000000E+00  0.0000000E+00  0.9000000E+00  0.1322286E-01  0.5416178E-02  0.1140000E-03  0.1886842E-02  0.7520751E-02  0.3520134E-03  0.1116375E+00  0.8188198E-64  0.2832490E-01  0.1120485E+00  0.1145101E-08  0.3338310E-13
  0.0000000E+00  0.0000000E+00  0.8500000E+00  0.1325505E-01  0.5117772E-02  0.1140000E-03  0.1886875E-02  0.7108230E-02  0.3334784E-03  0.1129869E+00  0.8237078E-64  0.2828204E-01  0.1119630E+00  0.1158889E-08  0.3333214E-13
  0.0000000E+00  0.0000000E+00  0.8000000E+00  0.1328435E-01  0.4819540E-02  0.1140000E-03  0.1887413E-02  0.6695965E-02  0.3148855E-03  0.1143381E+00  0.9160704E-64  0.2824074E-01  0.1118777E+00  0.1202527E-08  0.2722697E-13
  0.0000000E+00  0.0000000E+00  0.7500000E+00  0.1321710E-01  0.4521485E-02  0.1140000E-03  0.1896994E-02  0.6284000E-02  0.2976625E-03  0.1014136E+00  0.2160092E-34  0.1481195E-01  0.1099164E+00  0.1249781E-01  0.4330582E-72
  0.0000000E+00  0.0000000E+00  0.7000000E+00  0.1315371E-01  0.4223549E-02  0.1140000E-03  0.1909721E-02  0.5872351E-02  0.2807063E-03  0.8491824E-01  0.2073079E-05  0.1905607E-08  0.1035840E+00  0.2419124E-01  0.3898103-130
  0.0000000E+00  0.0000000E+00  0.6500000E+00  0.1322195E-01  0.4321678E-02  0.1140000E-03  0.1913264E-02  0.5461015E-02  0.2621568E-03  0.8035824E-01  0.6764613E-05  0.1342419E-08  0.9718136E-01  0.2176356E-01  0.3433871-131
  0.0000000E+00  0.0000000E+00  0.6000000E+00  0.1329500E-01  0.4441839E-02  0.1140000E-03  0.1916643E-02  0.5049956E-02  0.2435197E-03  0.7560168E-01  0.1352801E-04  0.1061534E-08  0.9069912E-01  0.1933746E-01  0.8000827-132
  0.0000000E+00  0.0000000E+00  0.5500000E+00  0.1336932E-01  0.4579574E-02  0.1140000E-03  0.1920017E-02  0.4639336E-02  0.2247903E-03  0.7077353E-01  0.2231363E-04  0.8756355E-09  0.8432163E-01  0.1699786E-01  0.2725229-132
  0.0000000E+00  0.0000000E+00  0.5000000E+00  0.1344480E-01  0.4738158E-02  0.1140000E-03  0.1923384E-02  0.4228952E-02  0.2059779E-03  0.6584300E-01  0.3312574E-04  0.7361812E-09  0.7803261E-01  0.1474335E-01  0.1138138-132
  0.0000000E+00  0.0000000E+00  0.4500000E+00  0.1352130E-01  0.4921077E-02  0.1140000E-03  0.1926748E-02  0.3818716E-02  0.1870912E-03  0.6078385E-01  0.4596990E-04  0.6238658E-09  0.7182809E-01  0.1257906E-01  0.5394136-133
  0.0000000E+00  0.0000000E+00  0.4000000E+00  0.1359813E-01  0.5132477E-02  0.1140000E-03  0.1930119E-02  0.3408587E-02  0.1681389E-03  0.5556689E-01  0.6085415E-04  0.5290445E-09  0.6570693E-01  0.1051308E-01  0.2780223-133
  0.0000000E+00  0.0000000E+00  0.3500000E+00  0.1366220E-01  0.5377249E-02  0.1140000E-03  0.1933546E-02  0.2998548E-02  0.1491306E-03  0.5016088E-01  0.7778722E-04  0.4462716E-09  0.5966197E-01  0.8558173E-02  0.1516356-133
  0.0000000E+00  0.0000000E+00  0.3000000E+00  0.1328387E-01  0.5664984E-02  0.1140000E-03  0.1937691E-02  0.2588589E-02  0.1301002E-03  0.4450754E-01  0.9679617E-04  0.3728879E-09  0.5328111E-01  0.6742298E-02  0.8543878-134
  0.0000000E+00  0.0000000E+00  0.2500000E+00  0.6699153E-02  0.6047390E-02  0.1140000E-03  0.1947541E-02  0.2178709E-02  0.1113693E-03  0.3829696E-01  0.1182321E-03  0.3157303E-09  0.4090318E-01  0.5220274E-02  0.4577438-134
  0.0000000E+00  0.0000000E+00  0.2000000E+00  0.3904887E-02  0.6440652E-02  0.1140000E-03  0.1953624E-02  0.1768906E-02  0.9231229E-04  0.3203068E-01  0.1416464E-03  0.2567825E-09  0.3235721E-01  0.3740576E-02  0.2516447-134
  0.0000000E+00  0.0000000E+00  0.1500000E+00  0.2720742E-02  0.6879053E-02  0.1140000E-03  0.1950689E-02  0.1359179E-02  0.7311796E-04  0.2550344E-01  0.1671010E-03  0.1979188E-09  0.2553152E-01  0.2406088E-02  0.1366271-134
  0.0000000E+00  0.0000000E+00  0.1000000E+00  0.2219184E-02  0.7387201E-02  0.1140000E-03  0.1819167E-02  0.9495046E-03  0.5386501E-04  0.1856788E-01  0.1946383E-03  0.1395237E-09  0.1954804E-01  0.1290786E-02  0.6940743-135
  0.0000000E+00  0.0000000E+00  0.5000000E-01  0.2006813E-02  0.7989354E-02  0.1140000E-03  0.1236135E-02  0.5397183E-03  0.3458818E-04  0.1107894E-01  0.2242904E-03  0.8094155E-10  0.1406238E-01  0.4677877E-03  0.2919690-135
  0.0000000E+00  0.0000000E+00  0.0000000E+00  0.1916928E-02  0.8717699E-02  0.1140000E-03  0.4622145E-03  0.1299022E-03  0.1530528E-04  0.2843776E-02  0.2560892E-03  0.2035513E-10  0.8972824E-02  0.3390759E-04  0.5227793-136
