# Units: Log10 mol/kgw
 TITLE = " Years"
VARIABLES = "X (meters)", "HTO       ", "
 ZONE F=POINT,I=           6
 5.00000E-02              -3.81595E-03
 2.00000E-01              -8.48416E-02
 4.00000E-01              -3.35610E-01
 6.00000E-01              -6.68597E-01
 8.00000E-01              -1.25612E+00
 9.50000E-01              -2.61111E+00
