# Units: Log10 mol/kgw
 TITLE = " Years"
VARIABLES = "X (meters)", "HTO       ", "
 ZONE F=POINT,I=           6
 5.00000E-02              -2.26196E-03
 2.00000E-01              -5.08002E-02
 4.00000E-01              -2.00749E-01
 6.00000E-01              -4.31646E-01
 8.00000E-01              -9.57072E-01
 9.50000E-01              -2.28443E+00
