# Units: Log10 mol/kgw
 TITLE = " Years"
VARIABLES = "X (meters)", "HTO       ", "
 ZONE F=POINT,I=           6
 5.00000E-02              -1.15054E-02
 2.00000E-01              -2.01224E-01
 4.00000E-01              -7.20887E-01
 6.00000E-01              -1.33837E+00
 8.00000E-01              -2.13071E+00
 9.50000E-01              -3.59423E+00
