# Units: Log10 mol/kgw
 TITLE = " Years"
VARIABLES = "X (meters)", "HTO       ", "
 ZONE F=POINT,I=           6
 5.00000E-02              -2.33293E-03
 2.00000E-01              -5.23622E-02
 4.00000E-01              -2.06759E-01
 6.00000E-01              -4.41912E-01
 8.00000E-01              -9.69791E-01
 9.50000E-01              -2.29820E+00
