# Units: % Porosity
 TITLE = " Years"
 VARIABLES = "X (meters)", "Porosity "
 ZONE F=POINT,I=           6
   5.0000000E-02   5.0000000E+01   5.0000000E+01
   2.0000000E-01   5.0000000E+01   4.0000000E+00
   4.0000000E-01   5.0000000E+01   4.0000000E+00
   6.0000000E-01   5.0000000E+01   4.0000000E+00
   8.0000000E-01   5.0000000E+01   5.0000000E+01
   9.5000000E-01   5.0000000E+01   5.0000000E+01
