# Units: Mol/kgw
 TITLE = " Years"
VARIABLES = "X (meters)", "HTO       ", "
 ZONE F=POINT,I=           6
 5.00000E-02               9.91252E-01
 2.00000E-01               8.22543E-01
 4.00000E-01               4.61732E-01
 6.00000E-01               2.14488E-01
 8.00000E-01               5.54469E-02
 9.50000E-01               2.44843E-03
