# Units: Mol/kgw
 TITLE = " Years"
VARIABLES = "X (meters)", "HTO       ", "
 ZONE F=POINT,I=           6
 5.00000E-02               9.94805E-01
 2.00000E-01               8.89610E-01
 4.00000E-01               6.29870E-01
 6.00000E-01               3.70130E-01
 8.00000E-01               1.10390E-01
 9.50000E-01               5.19481E-03
