# Units: Mol/kgw
 TITLE = " Years"
VARIABLES = "X (meters)", "HTO       ", "
 ZONE F=POINT,I=           6
 5.00000E-02               9.73856E-01
 2.00000E-01               6.29181E-01
 4.00000E-01               1.90157E-01
 6.00000E-01               4.58805E-02
 8.00000E-01               7.40093E-03
 9.50000E-01               2.54547E-04
