# Units: Mol/kgw
 TITLE = " Years"
VARIABLES = "X (meters)", "HTO       ", "
 ZONE F=POINT,I=           6
 5.00000E-02               9.94643E-01
 2.00000E-01               8.86417E-01
 4.00000E-01               6.21214E-01
 6.00000E-01               3.61483E-01
 8.00000E-01               1.07204E-01
 9.50000E-01               5.03273E-03
