title = "dataset haverk"
variables = "x", "y", "z", "h_w", "p_w", "s_w", "theta_a", "s_a", "theta_g"
zone t = "Flow variables, solution time =  1.000E-01 days        " i =   71, j =    1, k =    1,  f=point
  0.0000000E+00  0.0000000E+00  0.0000000E+00 -0.6150000E+02 -0.6150000E+02  0.3485631E+00  0.1000376E+00  0.6514369E+00  0.1869624E+00
  0.0000000E+00  0.0000000E+00  0.1000000E+01 -0.6050000E+02 -0.6150000E+02  0.3485631E+00  0.1000376E+00  0.6514369E+00  0.1869624E+00
  0.0000000E+00  0.0000000E+00  0.2000000E+01 -0.5950000E+02 -0.6150000E+02  0.3485631E+00  0.1000376E+00  0.6514369E+00  0.1869624E+00
  0.0000000E+00  0.0000000E+00  0.3000000E+01 -0.5850000E+02 -0.6150000E+02  0.3485631E+00  0.1000376E+00  0.6514369E+00  0.1869624E+00
  0.0000000E+00  0.0000000E+00  0.4000000E+01 -0.5750000E+02 -0.6150000E+02  0.3485631E+00  0.1000376E+00  0.6514369E+00  0.1869624E+00
  0.0000000E+00  0.0000000E+00  0.5000000E+01 -0.5650000E+02 -0.6150000E+02  0.3485631E+00  0.1000376E+00  0.6514369E+00  0.1869624E+00
  0.0000000E+00  0.0000000E+00  0.6000000E+01 -0.5550000E+02 -0.6150000E+02  0.3485631E+00  0.1000376E+00  0.6514369E+00  0.1869624E+00
  0.0000000E+00  0.0000000E+00  0.7000000E+01 -0.5450000E+02 -0.6150000E+02  0.3485631E+00  0.1000376E+00  0.6514369E+00  0.1869624E+00
  0.0000000E+00  0.0000000E+00  0.8000000E+01 -0.5350000E+02 -0.6150000E+02  0.3485631E+00  0.1000376E+00  0.6514369E+00  0.1869624E+00
  0.0000000E+00  0.0000000E+00  0.9000000E+01 -0.5250000E+02 -0.6150000E+02  0.3485631E+00  0.1000376E+00  0.6514369E+00  0.1869624E+00
  0.0000000E+00  0.0000000E+00  0.1000000E+02 -0.5150000E+02 -0.6150000E+02  0.3485631E+00  0.1000376E+00  0.6514369E+00  0.1869624E+00
  0.0000000E+00  0.0000000E+00  0.1100000E+02 -0.5050000E+02 -0.6150000E+02  0.3485631E+00  0.1000376E+00  0.6514369E+00  0.1869624E+00
  0.0000000E+00  0.0000000E+00  0.1200000E+02 -0.4950000E+02 -0.6150000E+02  0.3485631E+00  0.1000376E+00  0.6514369E+00  0.1869624E+00
  0.0000000E+00  0.0000000E+00  0.1300000E+02 -0.4850000E+02 -0.6150000E+02  0.3485631E+00  0.1000376E+00  0.6514369E+00  0.1869624E+00
  0.0000000E+00  0.0000000E+00  0.1400000E+02 -0.4750000E+02 -0.6150000E+02  0.3485631E+00  0.1000376E+00  0.6514369E+00  0.1869624E+00
  0.0000000E+00  0.0000000E+00  0.1500000E+02 -0.4650000E+02 -0.6150000E+02  0.3485631E+00  0.1000376E+00  0.6514369E+00  0.1869624E+00
  0.0000000E+00  0.0000000E+00  0.1600000E+02 -0.4550000E+02 -0.6150000E+02  0.3485631E+00  0.1000376E+00  0.6514369E+00  0.1869624E+00
  0.0000000E+00  0.0000000E+00  0.1700000E+02 -0.4450000E+02 -0.6150000E+02  0.3485631E+00  0.1000376E+00  0.6514369E+00  0.1869624E+00
  0.0000000E+00  0.0000000E+00  0.1800000E+02 -0.4350000E+02 -0.6150000E+02  0.3485631E+00  0.1000376E+00  0.6514369E+00  0.1869624E+00
  0.0000000E+00  0.0000000E+00  0.1900000E+02 -0.4250000E+02 -0.6150000E+02  0.3485631E+00  0.1000376E+00  0.6514369E+00  0.1869624E+00
  0.0000000E+00  0.0000000E+00  0.2000000E+02 -0.4150000E+02 -0.6150000E+02  0.3485631E+00  0.1000376E+00  0.6514369E+00  0.1869624E+00
  0.0000000E+00  0.0000000E+00  0.2100000E+02 -0.4050000E+02 -0.6150000E+02  0.3485631E+00  0.1000376E+00  0.6514369E+00  0.1869624E+00
  0.0000000E+00  0.0000000E+00  0.2200000E+02 -0.3950000E+02 -0.6150000E+02  0.3485631E+00  0.1000376E+00  0.6514369E+00  0.1869624E+00
  0.0000000E+00  0.0000000E+00  0.2300000E+02 -0.3850000E+02 -0.6150000E+02  0.3485631E+00  0.1000376E+00  0.6514369E+00  0.1869624E+00
  0.0000000E+00  0.0000000E+00  0.2400000E+02 -0.3750000E+02 -0.6150000E+02  0.3485631E+00  0.1000376E+00  0.6514369E+00  0.1869624E+00
  0.0000000E+00  0.0000000E+00  0.2500000E+02 -0.3650000E+02 -0.6150000E+02  0.3485631E+00  0.1000376E+00  0.6514369E+00  0.1869624E+00
  0.0000000E+00  0.0000000E+00  0.2600000E+02 -0.3550000E+02 -0.6150000E+02  0.3485631E+00  0.1000376E+00  0.6514369E+00  0.1869624E+00
  0.0000000E+00  0.0000000E+00  0.2700000E+02 -0.3450000E+02 -0.6150000E+02  0.3485631E+00  0.1000376E+00  0.6514369E+00  0.1869624E+00
  0.0000000E+00  0.0000000E+00  0.2800000E+02 -0.3350000E+02 -0.6150000E+02  0.3485631E+00  0.1000376E+00  0.6514369E+00  0.1869624E+00
  0.0000000E+00  0.0000000E+00  0.2900000E+02 -0.3250000E+02 -0.6150000E+02  0.3485631E+00  0.1000376E+00  0.6514369E+00  0.1869624E+00
  0.0000000E+00  0.0000000E+00  0.3000000E+02 -0.3150000E+02 -0.6150000E+02  0.3485631E+00  0.1000376E+00  0.6514369E+00  0.1869624E+00
  0.0000000E+00  0.0000000E+00  0.3100000E+02 -0.3050000E+02 -0.6150000E+02  0.3485631E+00  0.1000376E+00  0.6514369E+00  0.1869624E+00
  0.0000000E+00  0.0000000E+00  0.3200000E+02 -0.2950000E+02 -0.6150000E+02  0.3485631E+00  0.1000376E+00  0.6514369E+00  0.1869624E+00
  0.0000000E+00  0.0000000E+00  0.3300000E+02 -0.2850000E+02 -0.6150000E+02  0.3485631E+00  0.1000376E+00  0.6514369E+00  0.1869624E+00
  0.0000000E+00  0.0000000E+00  0.3400000E+02 -0.2750000E+02 -0.6150000E+02  0.3485631E+00  0.1000376E+00  0.6514369E+00  0.1869624E+00
  0.0000000E+00  0.0000000E+00  0.3500000E+02 -0.2650000E+02 -0.6150000E+02  0.3485631E+00  0.1000376E+00  0.6514369E+00  0.1869624E+00
  0.0000000E+00  0.0000000E+00  0.3600000E+02 -0.2550000E+02 -0.6150000E+02  0.3485631E+00  0.1000376E+00  0.6514369E+00  0.1869624E+00
  0.0000000E+00  0.0000000E+00  0.3700000E+02 -0.2450000E+02 -0.6150000E+02  0.3485631E+00  0.1000376E+00  0.6514369E+00  0.1869624E+00
  0.0000000E+00  0.0000000E+00  0.3800000E+02 -0.2350000E+02 -0.6150000E+02  0.3485631E+00  0.1000376E+00  0.6514369E+00  0.1869624E+00
  0.0000000E+00  0.0000000E+00  0.3900000E+02 -0.2250000E+02 -0.6150000E+02  0.3485631E+00  0.1000376E+00  0.6514369E+00  0.1869624E+00
  0.0000000E+00  0.0000000E+00  0.4000000E+02 -0.2150000E+02 -0.6150000E+02  0.3485631E+00  0.1000376E+00  0.6514369E+00  0.1869624E+00
  0.0000000E+00  0.0000000E+00  0.4100000E+02 -0.2050000E+02 -0.6150000E+02  0.3485631E+00  0.1000376E+00  0.6514369E+00  0.1869624E+00
  0.0000000E+00  0.0000000E+00  0.4200000E+02 -0.1950000E+02 -0.6150000E+02  0.3485631E+00  0.1000376E+00  0.6514369E+00  0.1869624E+00
  0.0000000E+00  0.0000000E+00  0.4300000E+02 -0.1850000E+02 -0.6150000E+02  0.3485631E+00  0.1000376E+00  0.6514369E+00  0.1869624E+00
  0.0000000E+00  0.0000000E+00  0.4400000E+02 -0.1750000E+02 -0.6150000E+02  0.3485631E+00  0.1000376E+00  0.6514369E+00  0.1869624E+00
  0.0000000E+00  0.0000000E+00  0.4500000E+02 -0.1650000E+02 -0.6150000E+02  0.3485631E+00  0.1000376E+00  0.6514369E+00  0.1869624E+00
  0.0000000E+00  0.0000000E+00  0.4600000E+02 -0.1550000E+02 -0.6150000E+02  0.3485631E+00  0.1000376E+00  0.6514369E+00  0.1869624E+00
  0.0000000E+00  0.0000000E+00  0.4700000E+02 -0.1449998E+02 -0.6149998E+02  0.3485631E+00  0.1000376E+00  0.6514369E+00  0.1869624E+00
  0.0000000E+00  0.0000000E+00  0.4800000E+02 -0.1349991E+02 -0.6149991E+02  0.3485634E+00  0.1000377E+00  0.6514366E+00  0.1869623E+00
  0.0000000E+00  0.0000000E+00  0.4900000E+02 -0.1249962E+02 -0.6149962E+02  0.3485648E+00  0.1000381E+00  0.6514352E+00  0.1869619E+00
  0.0000000E+00  0.0000000E+00  0.5000000E+02 -0.1149832E+02 -0.6149832E+02  0.3485707E+00  0.1000398E+00  0.6514293E+00  0.1869602E+00
  0.0000000E+00  0.0000000E+00  0.5100000E+02 -0.1049251E+02 -0.6149251E+02  0.3485970E+00  0.1000473E+00  0.6514030E+00  0.1869527E+00
  0.0000000E+00  0.0000000E+00  0.5200000E+02 -0.9466231E+01 -0.6146623E+02  0.3487163E+00  0.1000816E+00  0.6512837E+00  0.1869184E+00
  0.0000000E+00  0.0000000E+00  0.5300000E+02 -0.8346483E+01 -0.6134648E+02  0.3492626E+00  0.1002384E+00  0.6507374E+00  0.1867616E+00
  0.0000000E+00  0.0000000E+00  0.5400000E+02 -0.6821799E+01 -0.6082180E+02  0.3517057E+00  0.1009395E+00  0.6482943E+00  0.1860605E+00
  0.0000000E+00  0.0000000E+00  0.5500000E+02 -0.3976388E+01 -0.5897639E+02  0.3609813E+00  0.1036016E+00  0.6390187E+00  0.1833984E+00
  0.0000000E+00  0.0000000E+00  0.5600000E+02  0.9425176E+00 -0.5505748E+02  0.3847823E+00  0.1104325E+00  0.6152177E+00  0.1765675E+00
  0.0000000E+00  0.0000000E+00  0.5700000E+02  0.6783298E+01 -0.5021670E+02  0.4240634E+00  0.1217062E+00  0.5759366E+00  0.1652938E+00
  0.0000000E+00  0.0000000E+00  0.5800000E+02  0.1216625E+02 -0.4583375E+02  0.4721124E+00  0.1354963E+00  0.5278876E+00  0.1515037E+00
  0.0000000E+00  0.0000000E+00  0.5900000E+02  0.1670668E+02 -0.4229332E+02  0.5217321E+00  0.1497371E+00  0.4782679E+00  0.1372629E+00
  0.0000000E+00  0.0000000E+00  0.6000000E+02  0.2049203E+02 -0.3950797E+02  0.5683489E+00  0.1631161E+00  0.4316511E+00  0.1238839E+00
  0.0000000E+00  0.0000000E+00  0.6100000E+02  0.2369420E+02 -0.3730580E+02  0.6099096E+00  0.1750440E+00  0.3900904E+00  0.1119560E+00
  0.0000000E+00  0.0000000E+00  0.6200000E+02  0.2646056E+02 -0.3553944E+02  0.6459389E+00  0.1853845E+00  0.3540611E+00  0.1016155E+00
  0.0000000E+00  0.0000000E+00  0.6300000E+02  0.2890021E+02 -0.3409979E+02  0.6767448E+00  0.1942258E+00  0.3232552E+00  0.9277423E-01
  0.0000000E+00  0.0000000E+00  0.6400000E+02  0.3109128E+02 -0.3290872E+02  0.7029387E+00  0.2017434E+00  0.2970613E+00  0.8525660E-01
  0.0000000E+00  0.0000000E+00  0.6500000E+02  0.3308971E+02 -0.3191029E+02  0.7251929E+00  0.2081304E+00  0.2748071E+00  0.7886964E-01
  0.0000000E+00  0.0000000E+00  0.6600000E+02  0.3493616E+02 -0.3106384E+02  0.7441349E+00  0.2135667E+00  0.2558651E+00  0.7343327E-01
  0.0000000E+00  0.0000000E+00  0.6700000E+02  0.3666061E+02 -0.3033939E+02  0.7603103E+00  0.2182091E+00  0.2396897E+00  0.6879094E-01
  0.0000000E+00  0.0000000E+00  0.6800000E+02  0.3828567E+02 -0.2971433E+02  0.7741772E+00  0.2221889E+00  0.2258228E+00  0.6481114E-01
  0.0000000E+00  0.0000000E+00  0.6900000E+02  0.3982860E+02 -0.2917140E+02  0.7861142E+00  0.2256148E+00  0.2138858E+00  0.6138522E-01
  0.0000000E+00  0.0000000E+00  0.7000000E+02  0.4130286E+02 -0.2869714E+02  0.7964319E+00  0.2285760E+00  0.2035681E+00  0.5842403E-01
