title = "dataset haverk"
variables = "x", "y", "z", "h_w", "p_w", "s_w", "theta_a", "s_a", "theta_g"
zone t = "Flow variables, solution time =  4.000E-01 days        " i =   71, j =    1, k =    1,  f=point
  0.0000000E+00  0.0000000E+00  0.0000000E+00 -0.6150000E+02 -0.6150000E+02  0.3485631E+00  0.1000376E+00  0.6514369E+00  0.1869624E+00
  0.0000000E+00  0.0000000E+00  0.1000000E+01 -0.6050000E+02 -0.6150000E+02  0.3485631E+00  0.1000376E+00  0.6514369E+00  0.1869624E+00
  0.0000000E+00  0.0000000E+00  0.2000000E+01 -0.5950000E+02 -0.6150000E+02  0.3485631E+00  0.1000376E+00  0.6514369E+00  0.1869624E+00
  0.0000000E+00  0.0000000E+00  0.3000000E+01 -0.5850000E+02 -0.6150000E+02  0.3485631E+00  0.1000376E+00  0.6514369E+00  0.1869624E+00
  0.0000000E+00  0.0000000E+00  0.4000000E+01 -0.5750000E+02 -0.6150000E+02  0.3485631E+00  0.1000376E+00  0.6514369E+00  0.1869624E+00
  0.0000000E+00  0.0000000E+00  0.5000000E+01 -0.5650000E+02 -0.6150000E+02  0.3485631E+00  0.1000376E+00  0.6514369E+00  0.1869624E+00
  0.0000000E+00  0.0000000E+00  0.6000000E+01 -0.5550000E+02 -0.6150000E+02  0.3485631E+00  0.1000376E+00  0.6514369E+00  0.1869624E+00
  0.0000000E+00  0.0000000E+00  0.7000000E+01 -0.5450000E+02 -0.6150000E+02  0.3485631E+00  0.1000376E+00  0.6514369E+00  0.1869624E+00
  0.0000000E+00  0.0000000E+00  0.8000000E+01 -0.5350000E+02 -0.6150000E+02  0.3485631E+00  0.1000376E+00  0.6514369E+00  0.1869624E+00
  0.0000000E+00  0.0000000E+00  0.9000000E+01 -0.5250000E+02 -0.6150000E+02  0.3485631E+00  0.1000376E+00  0.6514369E+00  0.1869624E+00
  0.0000000E+00  0.0000000E+00  0.1000000E+02 -0.5150000E+02 -0.6150000E+02  0.3485631E+00  0.1000376E+00  0.6514369E+00  0.1869624E+00
  0.0000000E+00  0.0000000E+00  0.1100000E+02 -0.5050000E+02 -0.6150000E+02  0.3485631E+00  0.1000376E+00  0.6514369E+00  0.1869624E+00
  0.0000000E+00  0.0000000E+00  0.1200000E+02 -0.4950000E+02 -0.6150000E+02  0.3485631E+00  0.1000376E+00  0.6514369E+00  0.1869624E+00
  0.0000000E+00  0.0000000E+00  0.1300000E+02 -0.4850000E+02 -0.6150000E+02  0.3485631E+00  0.1000376E+00  0.6514369E+00  0.1869624E+00
  0.0000000E+00  0.0000000E+00  0.1400000E+02 -0.4750000E+02 -0.6150000E+02  0.3485631E+00  0.1000376E+00  0.6514369E+00  0.1869624E+00
  0.0000000E+00  0.0000000E+00  0.1500000E+02 -0.4650000E+02 -0.6150000E+02  0.3485631E+00  0.1000376E+00  0.6514369E+00  0.1869624E+00
  0.0000000E+00  0.0000000E+00  0.1600000E+02 -0.4549999E+02 -0.6149999E+02  0.3485631E+00  0.1000376E+00  0.6514369E+00  0.1869624E+00
  0.0000000E+00  0.0000000E+00  0.1700000E+02 -0.4449998E+02 -0.6149998E+02  0.3485631E+00  0.1000376E+00  0.6514369E+00  0.1869624E+00
  0.0000000E+00  0.0000000E+00  0.1800000E+02 -0.4349995E+02 -0.6149995E+02  0.3485633E+00  0.1000377E+00  0.6514367E+00  0.1869623E+00
  0.0000000E+00  0.0000000E+00  0.1900000E+02 -0.4249983E+02 -0.6149983E+02  0.3485638E+00  0.1000378E+00  0.6514362E+00  0.1869622E+00
  0.0000000E+00  0.0000000E+00  0.2000000E+02 -0.4149945E+02 -0.6149945E+02  0.3485655E+00  0.1000383E+00  0.6514345E+00  0.1869617E+00
  0.0000000E+00  0.0000000E+00  0.2100000E+02 -0.4049824E+02 -0.6149824E+02  0.3485710E+00  0.1000399E+00  0.6514290E+00  0.1869601E+00
  0.0000000E+00  0.0000000E+00  0.2200000E+02 -0.3949436E+02 -0.6149436E+02  0.3485886E+00  0.1000449E+00  0.6514114E+00  0.1869551E+00
  0.0000000E+00  0.0000000E+00  0.2300000E+02 -0.3848177E+02 -0.6148177E+02  0.3486458E+00  0.1000613E+00  0.6513542E+00  0.1869387E+00
  0.0000000E+00  0.0000000E+00  0.2400000E+02 -0.3744072E+02 -0.6144072E+02  0.3488324E+00  0.1001149E+00  0.6511676E+00  0.1868851E+00
  0.0000000E+00  0.0000000E+00  0.2500000E+02 -0.3630639E+02 -0.6130639E+02  0.3494464E+00  0.1002911E+00  0.6505536E+00  0.1867089E+00
  0.0000000E+00  0.0000000E+00  0.2600000E+02 -0.3487758E+02 -0.6087758E+02  0.3514421E+00  0.1008639E+00  0.6485579E+00  0.1861361E+00
  0.0000000E+00  0.0000000E+00  0.2700000E+02 -0.3266237E+02 -0.5966237E+02  0.3574042E+00  0.1025750E+00  0.6425958E+00  0.1844250E+00
  0.0000000E+00  0.0000000E+00  0.2800000E+02 -0.2908167E+02 -0.5708167E+02  0.3717295E+00  0.1066864E+00  0.6282705E+00  0.1803136E+00
  0.0000000E+00  0.0000000E+00  0.2900000E+02 -0.2436912E+02 -0.5336912E+02  0.3970824E+00  0.1139627E+00  0.6029176E+00  0.1730373E+00
  0.0000000E+00  0.0000000E+00  0.3000000E+02 -0.1945215E+02 -0.4945215E+02  0.4314949E+00  0.1238390E+00  0.5685051E+00  0.1631610E+00
  0.0000000E+00  0.0000000E+00  0.3100000E+02 -0.1495052E+02 -0.4595052E+02  0.4706505E+00  0.1350767E+00  0.5293495E+00  0.1519233E+00
  0.0000000E+00  0.0000000E+00  0.3200000E+02 -0.1102435E+02 -0.4302435E+02  0.5106206E+00  0.1465481E+00  0.4893794E+00  0.1404519E+00
  0.0000000E+00  0.0000000E+00  0.3300000E+02 -0.7626789E+01 -0.4062679E+02  0.5488076E+00  0.1575078E+00  0.4511924E+00  0.1294922E+00
  0.0000000E+00  0.0000000E+00  0.3400000E+02 -0.4661256E+01 -0.3866126E+02  0.5838545E+00  0.1675662E+00  0.4161455E+00  0.1194338E+00
  0.0000000E+00  0.0000000E+00  0.3500000E+02 -0.2036498E+01 -0.3703650E+02  0.6152583E+00  0.1765791E+00  0.3847417E+00  0.1104209E+00
  0.0000000E+00  0.0000000E+00  0.3600000E+02  0.3209533E+00 -0.3567905E+02  0.6430144E+00  0.1845451E+00  0.3569856E+00  0.1024549E+00
  0.0000000E+00  0.0000000E+00  0.3700000E+02  0.2467398E+01 -0.3453260E+02  0.6673692E+00  0.1915350E+00  0.3326308E+00  0.9546503E-01
  0.0000000E+00  0.0000000E+00  0.3800000E+02  0.4445460E+01 -0.3355454E+02  0.6886727E+00  0.1976491E+00  0.3113273E+00  0.8935094E-01
  0.0000000E+00  0.0000000E+00  0.3900000E+02  0.6287500E+01 -0.3271250E+02  0.7072969E+00  0.2029942E+00  0.2927031E+00  0.8400578E-01
  0.0000000E+00  0.0000000E+00  0.4000000E+02  0.8018316E+01 -0.3198168E+02  0.7235964E+00  0.2076722E+00  0.2764036E+00  0.7932782E-01
  0.0000000E+00  0.0000000E+00  0.4100000E+02  0.9657126E+01 -0.3134287E+02  0.7378907E+00  0.2117746E+00  0.2621093E+00  0.7522538E-01
  0.0000000E+00  0.0000000E+00  0.4200000E+02  0.1121901E+02 -0.3078099E+02  0.7504591E+00  0.2153818E+00  0.2495409E+00  0.7161823E-01
  0.0000000E+00  0.0000000E+00  0.4300000E+02  0.1271596E+02 -0.3028404E+02  0.7615423E+00  0.2185626E+00  0.2384577E+00  0.6843736E-01
  0.0000000E+00  0.0000000E+00  0.4400000E+02  0.1415759E+02 -0.2984241E+02  0.7713451E+00  0.2213761E+00  0.2286549E+00  0.6562395E-01
  0.0000000E+00  0.0000000E+00  0.4500000E+02  0.1555173E+02 -0.2944827E+02  0.7800417E+00  0.2238720E+00  0.2199583E+00  0.6312804E-01
  0.0000000E+00  0.0000000E+00  0.4600000E+02  0.1690479E+02 -0.2909521E+02  0.7877794E+00  0.2260927E+00  0.2122206E+00  0.6090731E-01
  0.0000000E+00  0.0000000E+00  0.4700000E+02  0.1822211E+02 -0.2877789E+02  0.7946834E+00  0.2280741E+00  0.2053166E+00  0.5892587E-01
  0.0000000E+00  0.0000000E+00  0.4800000E+02  0.1950812E+02 -0.2849188E+02  0.8008598E+00  0.2298468E+00  0.1991402E+00  0.5715324E-01
  0.0000000E+00  0.0000000E+00  0.4900000E+02  0.2076659E+02 -0.2823341E+02  0.8063991E+00  0.2314366E+00  0.1936009E+00  0.5556345E-01
  0.0000000E+00  0.0000000E+00  0.5000000E+02  0.2200068E+02 -0.2799932E+02  0.8113786E+00  0.2328657E+00  0.1886214E+00  0.5413433E-01
  0.0000000E+00  0.0000000E+00  0.5100000E+02  0.2321313E+02 -0.2778687E+02  0.8158645E+00  0.2341531E+00  0.1841355E+00  0.5284688E-01
  0.0000000E+00  0.0000000E+00  0.5200000E+02  0.2440628E+02 -0.2759372E+02  0.8199137E+00  0.2353152E+00  0.1800863E+00  0.5168476E-01
  0.0000000E+00  0.0000000E+00  0.5300000E+02  0.2558216E+02 -0.2741784E+02  0.8235755E+00  0.2363662E+00  0.1764245E+00  0.5063385E-01
  0.0000000E+00  0.0000000E+00  0.5400000E+02  0.2674252E+02 -0.2725748E+02  0.8268923E+00  0.2373181E+00  0.1731077E+00  0.4968192E-01
  0.0000000E+00  0.0000000E+00  0.5500000E+02  0.2788892E+02 -0.2711108E+02  0.8299012E+00  0.2381816E+00  0.1700988E+00  0.4881836E-01
  0.0000000E+00  0.0000000E+00  0.5600000E+02  0.2902271E+02 -0.2697729E+02  0.8326345E+00  0.2389661E+00  0.1673655E+00  0.4803389E-01
  0.0000000E+00  0.0000000E+00  0.5700000E+02  0.3014509E+02 -0.2685491E+02  0.8351206E+00  0.2396796E+00  0.1648794E+00  0.4732038E-01
  0.0000000E+00  0.0000000E+00  0.5800000E+02  0.3125712E+02 -0.2674288E+02  0.8373843E+00  0.2403293E+00  0.1626157E+00  0.4667071E-01
  0.0000000E+00  0.0000000E+00  0.5900000E+02  0.3235974E+02 -0.2664026E+02  0.8394475E+00  0.2409214E+00  0.1605525E+00  0.4607858E-01
  0.0000000E+00  0.0000000E+00  0.6000000E+02  0.3345379E+02 -0.2654621E+02  0.8413295E+00  0.2414616E+00  0.1586705E+00  0.4553843E-01
  0.0000000E+00  0.0000000E+00  0.6100000E+02  0.3454004E+02 -0.2645996E+02  0.8430476E+00  0.2419547E+00  0.1569524E+00  0.4504532E-01
  0.0000000E+00  0.0000000E+00  0.6200000E+02  0.3561915E+02 -0.2638085E+02  0.8446171E+00  0.2424051E+00  0.1553829E+00  0.4459489E-01
  0.0000000E+00  0.0000000E+00  0.6300000E+02  0.3669173E+02 -0.2630827E+02  0.8460516E+00  0.2428168E+00  0.1539484E+00  0.4418320E-01
  0.0000000E+00  0.0000000E+00  0.6400000E+02  0.3775834E+02 -0.2624166E+02  0.8473632E+00  0.2431932E+00  0.1526368E+00  0.4380676E-01
  0.0000000E+00  0.0000000E+00  0.6500000E+02  0.3881947E+02 -0.2618053E+02  0.8485630E+00  0.2435376E+00  0.1514370E+00  0.4346243E-01
  0.0000000E+00  0.0000000E+00  0.6600000E+02  0.3987558E+02 -0.2612442E+02  0.8496606E+00  0.2438526E+00  0.1503394E+00  0.4314740E-01
  0.0000000E+00  0.0000000E+00  0.6700000E+02  0.4092707E+02 -0.2607293E+02  0.8506651E+00  0.2441409E+00  0.1493349E+00  0.4285913E-01
  0.0000000E+00  0.0000000E+00  0.6800000E+02  0.4197432E+02 -0.2602568E+02  0.8515843E+00  0.2444047E+00  0.1484157E+00  0.4259531E-01
  0.0000000E+00  0.0000000E+00  0.6900000E+02  0.4301767E+02 -0.2598233E+02  0.8524255E+00  0.2446461E+00  0.1475745E+00  0.4235389E-01
  0.0000000E+00  0.0000000E+00  0.7000000E+02  0.4405742E+02 -0.2594258E+02  0.8531952E+00  0.2448670E+00  0.1468048E+00  0.4213298E-01
