title = "dataset haverk"
variables = "x", "y", "z", "h_w", "p_w", "s_w", "theta_a", "s_a", "theta_g", "q_root"
zone t = "Flow variables, solution time =  9.000E-01 days        " i =   71, j =    1, k =    1,  f=point
  0.0000000E+00  0.0000000E+00  0.0000000E+00 -0.6150000E+02 -0.6150000E+02  0.3485631E+00  0.1000376E+00  0.6514369E+00  0.1869624E+00  0.0000000E+00
  0.0000000E+00  0.0000000E+00  0.1000000E+01 -0.4295152E+02 -0.4395152E+02  0.4971875E+00  0.1426928E+00  0.5028125E+00  0.1443072E+00  0.0000000E+00
  0.0000000E+00  0.0000000E+00  0.2000000E+01 -0.3640353E+02 -0.3840353E+02  0.5886938E+00  0.1689551E+00  0.4113062E+00  0.1180449E+00  0.0000000E+00
  0.0000000E+00  0.0000000E+00  0.3000000E+01 -0.3251310E+02 -0.3551310E+02  0.6464922E+00  0.1855433E+00  0.3535078E+00  0.1014567E+00  0.0000000E+00
  0.0000000E+00  0.0000000E+00  0.4000000E+01 -0.2967154E+02 -0.3367154E+02  0.6861032E+00  0.1969116E+00  0.3138968E+00  0.9008837E-01  0.0000000E+00
  0.0000000E+00  0.0000000E+00  0.5000000E+01 -0.2736924E+02 -0.3236924E+02  0.7149415E+00  0.2051882E+00  0.2850585E+00  0.8181180E-01  0.0000000E+00
  0.0000000E+00  0.0000000E+00  0.6000000E+01 -0.2538869E+02 -0.3138869E+02  0.7368651E+00  0.2114803E+00  0.2631349E+00  0.7551973E-01  0.0000000E+00
  0.0000000E+00  0.0000000E+00  0.7000000E+01 -0.2361912E+02 -0.3061912E+02  0.7540739E+00  0.2164192E+00  0.2459261E+00  0.7058079E-01  0.0000000E+00
  0.0000000E+00  0.0000000E+00  0.8000000E+01 -0.2199713E+02 -0.2999713E+02  0.7679171E+00  0.2203922E+00  0.2320829E+00  0.6660780E-01  0.0000000E+00
  0.0000000E+00  0.0000000E+00  0.9000000E+01 -0.2048334E+02 -0.2948334E+02  0.7792704E+00  0.2236506E+00  0.2207296E+00  0.6334940E-01  0.0000000E+00
  0.0000000E+00  0.0000000E+00  0.1000000E+02 -0.1905173E+02 -0.2905173E+02  0.7887285E+00  0.2263651E+00  0.2112715E+00  0.6063493E-01  0.0000000E+00
  0.0000000E+00  0.0000000E+00  0.1100000E+02 -0.1768428E+02 -0.2868428E+02  0.7967100E+00  0.2286558E+00  0.2032900E+00  0.5834423E-01  0.0000000E+00
  0.0000000E+00  0.0000000E+00  0.1200000E+02 -0.1636806E+02 -0.2836806E+02  0.8035187E+00  0.2306099E+00  0.1964813E+00  0.5639013E-01  0.0000000E+00
  0.0000000E+00  0.0000000E+00  0.1300000E+02 -0.1509346E+02 -0.2809346E+02  0.8093805E+00  0.2322922E+00  0.1906195E+00  0.5470778E-01  0.0000000E+00
  0.0000000E+00  0.0000000E+00  0.1400000E+02 -0.1385322E+02 -0.2785322E+02  0.8144671E+00  0.2337521E+00  0.1855329E+00  0.5324794E-01  0.0000000E+00
  0.0000000E+00  0.0000000E+00  0.1500000E+02 -0.1264167E+02 -0.2764167E+02  0.8189112E+00  0.2350275E+00  0.1810888E+00  0.5197249E-01  0.0000000E+00
  0.0000000E+00  0.0000000E+00  0.1600000E+02 -0.1145436E+02 -0.2745436E+02  0.8228172E+00  0.2361485E+00  0.1771828E+00  0.5085146E-01  0.0000000E+00
  0.0000000E+00  0.0000000E+00  0.1700000E+02 -0.1028772E+02 -0.2728772E+02  0.8262684E+00  0.2371390E+00  0.1737316E+00  0.4986098E-01  0.0000000E+00
  0.0000000E+00  0.0000000E+00  0.1800000E+02 -0.9138849E+01 -0.2713885E+02  0.8293319E+00  0.2380182E+00  0.1706681E+00  0.4898176E-01  0.0000000E+00
  0.0000000E+00  0.0000000E+00  0.1900000E+02 -0.8005355E+01 -0.2700536E+02  0.8320625E+00  0.2388019E+00  0.1679375E+00  0.4819808E-01  0.0000000E+00
  0.0000000E+00  0.0000000E+00  0.2000000E+02 -0.6885261E+01 -0.2688526E+02  0.8345053E+00  0.2395030E+00  0.1654947E+00  0.4749697E-01  0.0000000E+00
  0.0000000E+00  0.0000000E+00  0.2100000E+02 -0.5776908E+01 -0.2677691E+02  0.8366980E+00  0.2401323E+00  0.1633020E+00  0.4686768E-01  0.0000000E+00
  0.0000000E+00  0.0000000E+00  0.2200000E+02 -0.4678893E+01 -0.2667889E+02  0.8386720E+00  0.2406989E+00  0.1613280E+00  0.4630115E-01  0.0000000E+00
  0.0000000E+00  0.0000000E+00  0.2300000E+02 -0.3590023E+01 -0.2659002E+02  0.8404538E+00  0.2412102E+00  0.1595462E+00  0.4578976E-01  0.0000000E+00
  0.0000000E+00  0.0000000E+00  0.2400000E+02 -0.2509278E+01 -0.2650928E+02  0.8420661E+00  0.2416730E+00  0.1579339E+00  0.4532703E-01  0.0000000E+00
  0.0000000E+00  0.0000000E+00  0.2500000E+02 -0.1435775E+01 -0.2643577E+02  0.8435282E+00  0.2420926E+00  0.1564718E+00  0.4490742E-01  0.0000000E+00
  0.0000000E+00  0.0000000E+00  0.2600000E+02 -0.3687510E+00 -0.2636875E+02  0.8448566E+00  0.2424739E+00  0.1551434E+00  0.4452614E-01  0.0000000E+00
  0.0000000E+00  0.0000000E+00  0.2700000E+02  0.6924590E+00 -0.2630754E+02  0.8460659E+00  0.2428209E+00  0.1539341E+00  0.4417908E-01  0.0000000E+00
  0.0000000E+00  0.0000000E+00  0.2800000E+02  0.1748437E+01 -0.2625156E+02  0.8471685E+00  0.2431374E+00  0.1528315E+00  0.4386265E-01  0.0000000E+00
  0.0000000E+00  0.0000000E+00  0.2900000E+02  0.2799696E+01 -0.2620030E+02  0.8481752E+00  0.2434263E+00  0.1518248E+00  0.4357371E-01  0.0000000E+00
  0.0000000E+00  0.0000000E+00  0.3000000E+02  0.3846687E+01 -0.2615331E+02  0.8490958E+00  0.2436905E+00  0.1509042E+00  0.4330951E-01  0.0000000E+00
  0.0000000E+00  0.0000000E+00  0.3100000E+02  0.4889809E+01 -0.2611019E+02  0.8499385E+00  0.2439323E+00  0.1500615E+00  0.4306766E-01  0.0000000E+00
  0.0000000E+00  0.0000000E+00  0.3200000E+02  0.5929420E+01 -0.2607058E+02  0.8507108E+00  0.2441540E+00  0.1492892E+00  0.4284599E-01  0.0000000E+00
  0.0000000E+00  0.0000000E+00  0.3300000E+02  0.6965835E+01 -0.2603417E+02  0.8514194E+00  0.2443574E+00  0.1485806E+00  0.4264263E-01  0.0000000E+00
  0.0000000E+00  0.0000000E+00  0.3400000E+02  0.7999338E+01 -0.2600066E+02  0.8520701E+00  0.2445441E+00  0.1479299E+00  0.4245589E-01  0.0000000E+00
  0.0000000E+00  0.0000000E+00  0.3500000E+02  0.9030185E+01 -0.2596982E+02  0.8526680E+00  0.2447157E+00  0.1473320E+00  0.4228427E-01  0.0000000E+00
  0.0000000E+00  0.0000000E+00  0.3600000E+02  0.1005860E+02 -0.2594140E+02  0.8532180E+00  0.2448736E+00  0.1467820E+00  0.4212642E-01  0.0000000E+00
  0.0000000E+00  0.0000000E+00  0.3700000E+02  0.1108480E+02 -0.2591520E+02  0.8537242E+00  0.2450189E+00  0.1462758E+00  0.4198114E-01  0.0000000E+00
  0.0000000E+00  0.0000000E+00  0.3800000E+02  0.1210896E+02 -0.2589104E+02  0.8541904E+00  0.2451527E+00  0.1458096E+00  0.4184735E-01  0.0000000E+00
  0.0000000E+00  0.0000000E+00  0.3900000E+02  0.1313125E+02 -0.2586875E+02  0.8546200E+00  0.2452759E+00  0.1453800E+00  0.4172406E-01  0.0000000E+00
  0.0000000E+00  0.0000000E+00  0.4000000E+02  0.1415182E+02 -0.2584818E+02  0.8550160E+00  0.2453896E+00  0.1449840E+00  0.4161041E-01  0.0000000E+00
  0.0000000E+00  0.0000000E+00  0.4100000E+02  0.1517082E+02 -0.2582918E+02  0.8553813E+00  0.2454944E+00  0.1446187E+00  0.4150558E-01  0.0000000E+00
  0.0000000E+00  0.0000000E+00  0.4200000E+02  0.1618837E+02 -0.2581163E+02  0.8557183E+00  0.2455911E+00  0.1442817E+00  0.4140885E-01  0.0000000E+00
  0.0000000E+00  0.0000000E+00  0.4300000E+02  0.1720458E+02 -0.2579542E+02  0.8560293E+00  0.2456804E+00  0.1439707E+00  0.4131958E-01  0.0000000E+00
  0.0000000E+00  0.0000000E+00  0.4400000E+02  0.1821956E+02 -0.2578044E+02  0.8563165E+00  0.2457628E+00  0.1436835E+00  0.4123715E-01  0.0000000E+00
  0.0000000E+00  0.0000000E+00  0.4500000E+02  0.1923341E+02 -0.2576659E+02  0.8565818E+00  0.2458390E+00  0.1434182E+00  0.4116103E-01  0.0000000E+00
  0.0000000E+00  0.0000000E+00  0.4600000E+02  0.2024621E+02 -0.2575379E+02  0.8568268E+00  0.2459093E+00  0.1431732E+00  0.4109072E-01  0.0000000E+00
  0.0000000E+00  0.0000000E+00  0.4700000E+02  0.2125804E+02 -0.2574196E+02  0.8570531E+00  0.2459742E+00  0.1429469E+00  0.4102575E-01  0.0000000E+00
  0.0000000E+00  0.0000000E+00  0.4800000E+02  0.2226898E+02 -0.2573102E+02  0.8572623E+00  0.2460343E+00  0.1427377E+00  0.4096573E-01  0.0000000E+00
  0.0000000E+00  0.0000000E+00  0.4900000E+02  0.2327910E+02 -0.2572090E+02  0.8574555E+00  0.2460897E+00  0.1425445E+00  0.4091026E-01  0.0000000E+00
  0.0000000E+00  0.0000000E+00  0.5000000E+02  0.2428846E+02 -0.2571154E+02  0.8576342E+00  0.2461410E+00  0.1423658E+00  0.4085900E-01  0.0000000E+00
  0.0000000E+00  0.0000000E+00  0.5100000E+02  0.2529711E+02 -0.2570289E+02  0.8577992E+00  0.2461884E+00  0.1422008E+00  0.4081162E-01  0.0000000E+00
  0.0000000E+00  0.0000000E+00  0.5200000E+02  0.2630511E+02 -0.2569489E+02  0.8579518E+00  0.2462322E+00  0.1420482E+00  0.4076783E-01  0.0000000E+00
  0.0000000E+00  0.0000000E+00  0.5300000E+02  0.2731251E+02 -0.2568749E+02  0.8580928E+00  0.2462726E+00  0.1419072E+00  0.4072737E-01  0.0000000E+00
  0.0000000E+00  0.0000000E+00  0.5400000E+02  0.2831935E+02 -0.2568065E+02  0.8582231E+00  0.2463100E+00  0.1417769E+00  0.4068997E-01  0.0000000E+00
  0.0000000E+00  0.0000000E+00  0.5500000E+02  0.2932567E+02 -0.2567433E+02  0.8583435E+00  0.2463446E+00  0.1416565E+00  0.4065541E-01  0.0000000E+00
  0.0000000E+00  0.0000000E+00  0.5600000E+02  0.3033151E+02 -0.2566849E+02  0.8584548E+00  0.2463765E+00  0.1415452E+00  0.4062348E-01  0.0000000E+00
  0.0000000E+00  0.0000000E+00  0.5700000E+02  0.3133691E+02 -0.2566309E+02  0.8585576E+00  0.2464060E+00  0.1414424E+00  0.4059398E-01  0.0000000E+00
  0.0000000E+00  0.0000000E+00  0.5800000E+02  0.3234190E+02 -0.2565810E+02  0.8586525E+00  0.2464333E+00  0.1413475E+00  0.4056673E-01  0.0000000E+00
  0.0000000E+00  0.0000000E+00  0.5900000E+02  0.3334651E+02 -0.2565349E+02  0.8587402E+00  0.2464584E+00  0.1412598E+00  0.4054156E-01  0.0000000E+00
  0.0000000E+00  0.0000000E+00  0.6000000E+02  0.3435077E+02 -0.2564923E+02  0.8588212E+00  0.2464817E+00  0.1411788E+00  0.4051833E-01  0.0000000E+00
  0.0000000E+00  0.0000000E+00  0.6100000E+02  0.3535470E+02 -0.2564530E+02  0.8588959E+00  0.2465031E+00  0.1411041E+00  0.4049688E-01  0.0000000E+00
  0.0000000E+00  0.0000000E+00  0.6200000E+02  0.3635833E+02 -0.2564167E+02  0.8589648E+00  0.2465229E+00  0.1410352E+00  0.4047709E-01  0.0000000E+00
  0.0000000E+00  0.0000000E+00  0.6300000E+02  0.3736168E+02 -0.2563832E+02  0.8590285E+00  0.2465412E+00  0.1409715E+00  0.4045883E-01  0.0000000E+00
  0.0000000E+00  0.0000000E+00  0.6400000E+02  0.3836476E+02 -0.2563524E+02  0.8590871E+00  0.2465580E+00  0.1409129E+00  0.4044199E-01  0.0000000E+00
  0.0000000E+00  0.0000000E+00  0.6500000E+02  0.3936761E+02 -0.2563239E+02  0.8591412E+00  0.2465735E+00  0.1408588E+00  0.4042647E-01  0.0000000E+00
  0.0000000E+00  0.0000000E+00  0.6600000E+02  0.4037024E+02 -0.2562976E+02  0.8591911E+00  0.2465878E+00  0.1408089E+00  0.4041217E-01  0.0000000E+00
  0.0000000E+00  0.0000000E+00  0.6700000E+02  0.4137265E+02 -0.2562735E+02  0.8592370E+00  0.2466010E+00  0.1407630E+00  0.4039899E-01  0.0000000E+00
  0.0000000E+00  0.0000000E+00  0.6800000E+02  0.4237488E+02 -0.2562512E+02  0.8592792E+00  0.2466131E+00  0.1407208E+00  0.4038686E-01  0.0000000E+00
  0.0000000E+00  0.0000000E+00  0.6900000E+02  0.4337693E+02 -0.2562307E+02  0.8593181E+00  0.2466243E+00  0.1406819E+00  0.4037570E-01  0.0000000E+00
  0.0000000E+00  0.0000000E+00  0.7000000E+02  0.4437881E+02 -0.2562119E+02  0.8593539E+00  0.2466346E+00  0.1406461E+00  0.4036543E-01  0.0000000E+00
