title = "dataset haverk"
variables = "x", "y", "z", "h_w", "p_w", "s_w", "theta_a", "s_a", "theta_g", "q_root"
zone t = "Flow variables, solution time =  8.000E-01 days        " i =   71, j =    1, k =    1,  f=point
  0.0000000E+00  0.0000000E+00  0.0000000E+00 -0.6150000E+02 -0.6150000E+02  0.3485631E+00  0.1000376E+00  0.6514369E+00  0.1869624E+00  0.0000000E+00
  0.0000000E+00  0.0000000E+00  0.1000000E+01 -0.4506262E+02 -0.4606262E+02  0.4692570E+00  0.1346768E+00  0.5307430E+00  0.1523232E+00  0.0000000E+00
  0.0000000E+00  0.0000000E+00  0.2000000E+01 -0.3876086E+02 -0.4076086E+02  0.5465392E+00  0.1568568E+00  0.4534608E+00  0.1301432E+00  0.0000000E+00
  0.0000000E+00  0.0000000E+00  0.3000000E+01 -0.3486874E+02 -0.3786874E+02  0.5989095E+00  0.1718870E+00  0.4010905E+00  0.1151130E+00  0.0000000E+00
  0.0000000E+00  0.0000000E+00  0.4000000E+01 -0.3195196E+02 -0.3595196E+02  0.6373331E+00  0.1829146E+00  0.3626669E+00  0.1040854E+00  0.0000000E+00
  0.0000000E+00  0.0000000E+00  0.5000000E+01 -0.2954512E+02 -0.3454512E+02  0.6670995E+00  0.1914576E+00  0.3329005E+00  0.9554244E-01  0.0000000E+00
  0.0000000E+00  0.0000000E+00  0.6000000E+01 -0.2744791E+02 -0.3344791E+02  0.6910188E+00  0.1983224E+00  0.3089812E+00  0.8867762E-01  0.0000000E+00
  0.0000000E+00  0.0000000E+00  0.7000000E+01 -0.2555791E+02 -0.3255791E+02  0.7107367E+00  0.2039814E+00  0.2892633E+00  0.8301855E-01  0.0000000E+00
  0.0000000E+00  0.0000000E+00  0.8000000E+01 -0.2381624E+02 -0.3181624E+02  0.7272965E+00  0.2087341E+00  0.2727035E+00  0.7826590E-01  0.0000000E+00
  0.0000000E+00  0.0000000E+00  0.9000000E+01 -0.2218602E+02 -0.3118602E+02  0.7414012E+00  0.2127821E+00  0.2585988E+00  0.7421786E-01  0.0000000E+00
  0.0000000E+00  0.0000000E+00  0.1000000E+02 -0.2064268E+02 -0.3064268E+02  0.7535480E+00  0.2162683E+00  0.2464520E+00  0.7073172E-01  0.0000000E+00
  0.0000000E+00  0.0000000E+00  0.1100000E+02 -0.1916893E+02 -0.3016893E+02  0.7641024E+00  0.2192974E+00  0.2358976E+00  0.6770262E-01  0.0000000E+00
  0.0000000E+00  0.0000000E+00  0.1200000E+02 -0.1775219E+02 -0.2975219E+02  0.7733408E+00  0.2219488E+00  0.2266592E+00  0.6505120E-01  0.0000000E+00
  0.0000000E+00  0.0000000E+00  0.1300000E+02 -0.1638294E+02 -0.2938294E+02  0.7814776E+00  0.2242841E+00  0.2185224E+00  0.6271592E-01  0.0000000E+00
  0.0000000E+00  0.0000000E+00  0.1400000E+02 -0.1505383E+02 -0.2905383E+02  0.7886825E+00  0.2263519E+00  0.2113175E+00  0.6064813E-01  0.0000000E+00
  0.0000000E+00  0.0000000E+00  0.1500000E+02 -0.1375906E+02 -0.2875906E+02  0.7950916E+00  0.2281913E+00  0.2049084E+00  0.5880871E-01  0.0000000E+00
  0.0000000E+00  0.0000000E+00  0.1600000E+02 -0.1249392E+02 -0.2849392E+02  0.8008160E+00  0.2298342E+00  0.1991840E+00  0.5716582E-01  0.0000000E+00
  0.0000000E+00  0.0000000E+00  0.1700000E+02 -0.1125458E+02 -0.2825458E+02  0.8059471E+00  0.2313068E+00  0.1940529E+00  0.5569318E-01  0.0000000E+00
  0.0000000E+00  0.0000000E+00  0.1800000E+02 -0.1003787E+02 -0.2803787E+02  0.8105612E+00  0.2326311E+00  0.1894388E+00  0.5436894E-01  0.0000000E+00
  0.0000000E+00  0.0000000E+00  0.1900000E+02 -0.8841120E+01 -0.2784112E+02  0.8147221E+00  0.2338252E+00  0.1852779E+00  0.5317475E-01  0.0000000E+00
  0.0000000E+00  0.0000000E+00  0.2000000E+02 -0.7662071E+01 -0.2766207E+02  0.8184841E+00  0.2349049E+00  0.1815159E+00  0.5209507E-01  0.0000000E+00
  0.0000000E+00  0.0000000E+00  0.2100000E+02 -0.6498794E+01 -0.2749879E+02  0.8218932E+00  0.2358833E+00  0.1781068E+00  0.5111666E-01  0.0000000E+00
  0.0000000E+00  0.0000000E+00  0.2200000E+02 -0.5349627E+01 -0.2734963E+02  0.8249890E+00  0.2367718E+00  0.1750110E+00  0.5022816E-01  0.0000000E+00
  0.0000000E+00  0.0000000E+00  0.2300000E+02 -0.4213131E+01 -0.2721313E+02  0.8278057E+00  0.2375802E+00  0.1721943E+00  0.4941977E-01  0.0000000E+00
  0.0000000E+00  0.0000000E+00  0.2400000E+02 -0.3088049E+01 -0.2708805E+02  0.8303728E+00  0.2383170E+00  0.1696272E+00  0.4868300E-01  0.0000000E+00
  0.0000000E+00  0.0000000E+00  0.2500000E+02 -0.1973278E+01 -0.2697328E+02  0.8327162E+00  0.2389896E+00  0.1672838E+00  0.4801044E-01  0.0000000E+00
  0.0000000E+00  0.0000000E+00  0.2600000E+02 -0.8678481E+00 -0.2686785E+02  0.8348584E+00  0.2396044E+00  0.1651416E+00  0.4739563E-01  0.0000000E+00
  0.0000000E+00  0.0000000E+00  0.2700000E+02  0.2291014E+00 -0.2677090E+02  0.8368193E+00  0.2401671E+00  0.1631807E+00  0.4683287E-01  0.0000000E+00
  0.0000000E+00  0.0000000E+00  0.2800000E+02  0.1318335E+01 -0.2668167E+02  0.8386163E+00  0.2406829E+00  0.1613837E+00  0.4631714E-01  0.0000000E+00
  0.0000000E+00  0.0000000E+00  0.2900000E+02  0.2400534E+01 -0.2659947E+02  0.8402648E+00  0.2411560E+00  0.1597352E+00  0.4584399E-01  0.0000000E+00
  0.0000000E+00  0.0000000E+00  0.3000000E+02  0.3476311E+01 -0.2652369E+02  0.8417788E+00  0.2415905E+00  0.1582212E+00  0.4540948E-01  0.0000000E+00
  0.0000000E+00  0.0000000E+00  0.3100000E+02  0.4546212E+01 -0.2645379E+02  0.8431704E+00  0.2419899E+00  0.1568296E+00  0.4501011E-01  0.0000000E+00
  0.0000000E+00  0.0000000E+00  0.3200000E+02  0.5610733E+01 -0.2638927E+02  0.8444505E+00  0.2423573E+00  0.1555495E+00  0.4464271E-01  0.0000000E+00
  0.0000000E+00  0.0000000E+00  0.3300000E+02  0.6670319E+01 -0.2632968E+02  0.8456290E+00  0.2426955E+00  0.1543710E+00  0.4430449E-01  0.0000000E+00
  0.0000000E+00  0.0000000E+00  0.3400000E+02  0.7725373E+01 -0.2627463E+02  0.8467146E+00  0.2430071E+00  0.1532854E+00  0.4399291E-01  0.0000000E+00
  0.0000000E+00  0.0000000E+00  0.3500000E+02  0.8776262E+01 -0.2622374E+02  0.8477153E+00  0.2432943E+00  0.1522847E+00  0.4370571E-01  0.0000000E+00
  0.0000000E+00  0.0000000E+00  0.3600000E+02  0.9823318E+01 -0.2617668E+02  0.8486383E+00  0.2435592E+00  0.1513617E+00  0.4344082E-01  0.0000000E+00
  0.0000000E+00  0.0000000E+00  0.3700000E+02  0.1086684E+02 -0.2613316E+02  0.8494899E+00  0.2438036E+00  0.1505101E+00  0.4319639E-01  0.0000000E+00
  0.0000000E+00  0.0000000E+00  0.3800000E+02  0.1190712E+02 -0.2609288E+02  0.8502762E+00  0.2440293E+00  0.1497238E+00  0.4297074E-01  0.0000000E+00
  0.0000000E+00  0.0000000E+00  0.3900000E+02  0.1294439E+02 -0.2605561E+02  0.8510023E+00  0.2442377E+00  0.1489977E+00  0.4276235E-01  0.0000000E+00
  0.0000000E+00  0.0000000E+00  0.4000000E+02  0.1397889E+02 -0.2602111E+02  0.8516731E+00  0.2444302E+00  0.1483269E+00  0.4256982E-01  0.0000000E+00
  0.0000000E+00  0.0000000E+00  0.4100000E+02  0.1501083E+02 -0.2598917E+02  0.8522930E+00  0.2446081E+00  0.1477070E+00  0.4239190E-01  0.0000000E+00
  0.0000000E+00  0.0000000E+00  0.4200000E+02  0.1604041E+02 -0.2595959E+02  0.8528661E+00  0.2447726E+00  0.1471339E+00  0.4222744E-01  0.0000000E+00
  0.0000000E+00  0.0000000E+00  0.4300000E+02  0.1706780E+02 -0.2593220E+02  0.8533959E+00  0.2449246E+00  0.1466041E+00  0.4207537E-01  0.0000000E+00
  0.0000000E+00  0.0000000E+00  0.4400000E+02  0.1809317E+02 -0.2590683E+02  0.8538859E+00  0.2450653E+00  0.1461141E+00  0.4193474E-01  0.0000000E+00
  0.0000000E+00  0.0000000E+00  0.4500000E+02  0.1911667E+02 -0.2588333E+02  0.8543391E+00  0.2451953E+00  0.1456609E+00  0.4180467E-01  0.0000000E+00
  0.0000000E+00  0.0000000E+00  0.4600000E+02  0.2013843E+02 -0.2586157E+02  0.8547584E+00  0.2453157E+00  0.1452416E+00  0.4168435E-01  0.0000000E+00
  0.0000000E+00  0.0000000E+00  0.4700000E+02  0.2115859E+02 -0.2584141E+02  0.8551462E+00  0.2454270E+00  0.1448538E+00  0.4157304E-01  0.0000000E+00
  0.0000000E+00  0.0000000E+00  0.4800000E+02  0.2217726E+02 -0.2582274E+02  0.8555051E+00  0.2455300E+00  0.1444949E+00  0.4147005E-01  0.0000000E+00
  0.0000000E+00  0.0000000E+00  0.4900000E+02  0.2319455E+02 -0.2580545E+02  0.8558371E+00  0.2456252E+00  0.1441629E+00  0.4137476E-01  0.0000000E+00
  0.0000000E+00  0.0000000E+00  0.5000000E+02  0.2421057E+02 -0.2578943E+02  0.8561442E+00  0.2457134E+00  0.1438558E+00  0.4128660E-01  0.0000000E+00
  0.0000000E+00  0.0000000E+00  0.5100000E+02  0.2522540E+02 -0.2577460E+02  0.8564284E+00  0.2457950E+00  0.1435716E+00  0.4120504E-01  0.0000000E+00
  0.0000000E+00  0.0000000E+00  0.5200000E+02  0.2623913E+02 -0.2576087E+02  0.8566914E+00  0.2458704E+00  0.1433086E+00  0.4112957E-01  0.0000000E+00
  0.0000000E+00  0.0000000E+00  0.5300000E+02  0.2725185E+02 -0.2574815E+02  0.8569346E+00  0.2459402E+00  0.1430654E+00  0.4105976E-01  0.0000000E+00
  0.0000000E+00  0.0000000E+00  0.5400000E+02  0.2826361E+02 -0.2573639E+02  0.8571596E+00  0.2460048E+00  0.1428404E+00  0.4099518E-01  0.0000000E+00
  0.0000000E+00  0.0000000E+00  0.5500000E+02  0.2927451E+02 -0.2572549E+02  0.8573677E+00  0.2460645E+00  0.1426323E+00  0.4093546E-01  0.0000000E+00
  0.0000000E+00  0.0000000E+00  0.5600000E+02  0.3028458E+02 -0.2571542E+02  0.8575602E+00  0.2461198E+00  0.1424398E+00  0.4088023E-01  0.0000000E+00
  0.0000000E+00  0.0000000E+00  0.5700000E+02  0.3129391E+02 -0.2570609E+02  0.8577381E+00  0.2461708E+00  0.1422619E+00  0.4082916E-01  0.0000000E+00
  0.0000000E+00  0.0000000E+00  0.5800000E+02  0.3230253E+02 -0.2569747E+02  0.8579026E+00  0.2462180E+00  0.1420974E+00  0.4078196E-01  0.0000000E+00
  0.0000000E+00  0.0000000E+00  0.5900000E+02  0.3331050E+02 -0.2568950E+02  0.8580546E+00  0.2462617E+00  0.1419454E+00  0.4073833E-01  0.0000000E+00
  0.0000000E+00  0.0000000E+00  0.6000000E+02  0.3431787E+02 -0.2568213E+02  0.8581950E+00  0.2463020E+00  0.1418050E+00  0.4069802E-01  0.0000000E+00
  0.0000000E+00  0.0000000E+00  0.6100000E+02  0.3532469E+02 -0.2567531E+02  0.8583248E+00  0.2463392E+00  0.1416752E+00  0.4066079E-01  0.0000000E+00
  0.0000000E+00  0.0000000E+00  0.6200000E+02  0.3633098E+02 -0.2566902E+02  0.8584446E+00  0.2463736E+00  0.1415554E+00  0.4062641E-01  0.0000000E+00
  0.0000000E+00  0.0000000E+00  0.6300000E+02  0.3733679E+02 -0.2566321E+02  0.8585551E+00  0.2464053E+00  0.1414449E+00  0.4059468E-01  0.0000000E+00
  0.0000000E+00  0.0000000E+00  0.6400000E+02  0.3834215E+02 -0.2565785E+02  0.8586572E+00  0.2464346E+00  0.1413428E+00  0.4056540E-01  0.0000000E+00
  0.0000000E+00  0.0000000E+00  0.6500000E+02  0.3934710E+02 -0.2565290E+02  0.8587513E+00  0.2464616E+00  0.1412487E+00  0.4053839E-01  0.0000000E+00
  0.0000000E+00  0.0000000E+00  0.6600000E+02  0.4035166E+02 -0.2564834E+02  0.8588380E+00  0.2464865E+00  0.1411620E+00  0.4051348E-01  0.0000000E+00
  0.0000000E+00  0.0000000E+00  0.6700000E+02  0.4135586E+02 -0.2564414E+02  0.8589180E+00  0.2465095E+00  0.1410820E+00  0.4049053E-01  0.0000000E+00
  0.0000000E+00  0.0000000E+00  0.6800000E+02  0.4235974E+02 -0.2564026E+02  0.8589916E+00  0.2465306E+00  0.1410084E+00  0.4046940E-01  0.0000000E+00
  0.0000000E+00  0.0000000E+00  0.6900000E+02  0.4336331E+02 -0.2563669E+02  0.8590595E+00  0.2465501E+00  0.1409405E+00  0.4044994E-01  0.0000000E+00
  0.0000000E+00  0.0000000E+00  0.7000000E+02  0.4436659E+02 -0.2563341E+02  0.8591218E+00  0.2465680E+00  0.1408782E+00  0.4043203E-01  0.0000000E+00
