title = "dataset haverk"
variables = "x", "y", "z", "h_w", "p_w", "s_w", "theta_a", "s_a", "theta_g", "q_root"
zone t = "Flow variables, solution time =  5.000E-01 days        " i =   71, j =    1, k =    1,  f=point
  0.0000000E+00  0.0000000E+00  0.0000000E+00 -0.6150000E+02 -0.6150000E+02  0.3485631E+00  0.1000376E+00  0.6514369E+00  0.1869624E+00  0.0000000E+00
  0.0000000E+00  0.0000000E+00  0.1000000E+01 -0.6050000E+02 -0.6150000E+02  0.3485631E+00  0.1000376E+00  0.6514369E+00  0.1869624E+00  0.0000000E+00
  0.0000000E+00  0.0000000E+00  0.2000000E+01 -0.5950000E+02 -0.6150000E+02  0.3485631E+00  0.1000376E+00  0.6514369E+00  0.1869624E+00  0.0000000E+00
  0.0000000E+00  0.0000000E+00  0.3000000E+01 -0.5850000E+02 -0.6150000E+02  0.3485631E+00  0.1000376E+00  0.6514369E+00  0.1869624E+00  0.0000000E+00
  0.0000000E+00  0.0000000E+00  0.4000000E+01 -0.5750000E+02 -0.6150000E+02  0.3485631E+00  0.1000376E+00  0.6514369E+00  0.1869624E+00  0.0000000E+00
  0.0000000E+00  0.0000000E+00  0.5000000E+01 -0.5650000E+02 -0.6150000E+02  0.3485631E+00  0.1000376E+00  0.6514369E+00  0.1869624E+00  0.0000000E+00
  0.0000000E+00  0.0000000E+00  0.6000000E+01 -0.5550000E+02 -0.6150000E+02  0.3485631E+00  0.1000376E+00  0.6514369E+00  0.1869624E+00  0.0000000E+00
  0.0000000E+00  0.0000000E+00  0.7000000E+01 -0.5450000E+02 -0.6150000E+02  0.3485631E+00  0.1000376E+00  0.6514369E+00  0.1869624E+00  0.0000000E+00
  0.0000000E+00  0.0000000E+00  0.8000000E+01 -0.5349999E+02 -0.6149999E+02  0.3485631E+00  0.1000376E+00  0.6514369E+00  0.1869624E+00  0.0000000E+00
  0.0000000E+00  0.0000000E+00  0.9000000E+01 -0.5249995E+02 -0.6149995E+02  0.3485633E+00  0.1000377E+00  0.6514367E+00  0.1869623E+00  0.0000000E+00
  0.0000000E+00  0.0000000E+00  0.1000000E+02 -0.5149985E+02 -0.6149985E+02  0.3485637E+00  0.1000378E+00  0.6514363E+00  0.1869622E+00  0.0000000E+00
  0.0000000E+00  0.0000000E+00  0.1100000E+02 -0.5049955E+02 -0.6149955E+02  0.3485651E+00  0.1000382E+00  0.6514349E+00  0.1869618E+00  0.0000000E+00
  0.0000000E+00  0.0000000E+00  0.1200000E+02 -0.4949858E+02 -0.6149858E+02  0.3485695E+00  0.1000394E+00  0.6514305E+00  0.1869606E+00  0.0000000E+00
  0.0000000E+00  0.0000000E+00  0.1300000E+02 -0.4849556E+02 -0.6149556E+02  0.3485832E+00  0.1000434E+00  0.6514168E+00  0.1869566E+00  0.0000000E+00
  0.0000000E+00  0.0000000E+00  0.1400000E+02 -0.4748611E+02 -0.6148611E+02  0.3486260E+00  0.1000557E+00  0.6513740E+00  0.1869443E+00  0.0000000E+00
  0.0000000E+00  0.0000000E+00  0.1500000E+02 -0.4645657E+02 -0.6145657E+02  0.3487602E+00  0.1000942E+00  0.6512398E+00  0.1869058E+00  0.0000000E+00
  0.0000000E+00  0.0000000E+00  0.1600000E+02 -0.4536452E+02 -0.6136452E+02  0.3491800E+00  0.1002147E+00  0.6508200E+00  0.1867853E+00  0.0000000E+00
  0.0000000E+00  0.0000000E+00  0.1700000E+02 -0.4408299E+02 -0.6108299E+02  0.3504793E+00  0.1005876E+00  0.6495207E+00  0.1864124E+00  0.0000000E+00
  0.0000000E+00  0.0000000E+00  0.1800000E+02 -0.4228140E+02 -0.6028140E+02  0.3543091E+00  0.1016867E+00  0.6456909E+00  0.1853133E+00  0.0000000E+00
  0.0000000E+00  0.0000000E+00  0.1900000E+02 -0.3940041E+02 -0.5840041E+02  0.3641098E+00  0.1044995E+00  0.6358902E+00  0.1825005E+00  0.0000000E+00
  0.0000000E+00  0.0000000E+00  0.2000000E+02 -0.3522799E+02 -0.5522799E+02  0.3836146E+00  0.1100974E+00  0.6163854E+00  0.1769026E+00  0.0000000E+00
  0.0000000E+00  0.0000000E+00  0.2100000E+02 -0.3041401E+02 -0.5141401E+02  0.4131501E+00  0.1185741E+00  0.5868499E+00  0.1684259E+00  0.0000000E+00
  0.0000000E+00  0.0000000E+00  0.2200000E+02 -0.2574494E+02 -0.4774494E+02  0.4494878E+00  0.1290030E+00  0.5505122E+00  0.1579970E+00  0.0000000E+00
  0.0000000E+00  0.0000000E+00  0.2300000E+02 -0.2157503E+02 -0.4457503E+02  0.4885607E+00  0.1402169E+00  0.5114393E+00  0.1467831E+00  0.0000000E+00
  0.0000000E+00  0.0000000E+00  0.2400000E+02 -0.1794535E+02 -0.4194535E+02  0.5271845E+00  0.1513019E+00  0.4728155E+00  0.1356981E+00  0.0000000E+00
  0.0000000E+00  0.0000000E+00  0.2500000E+02 -0.1478387E+02 -0.3978387E+02  0.5634292E+00  0.1617042E+00  0.4365708E+00  0.1252958E+00  0.0000000E+00
  0.0000000E+00  0.0000000E+00  0.2600000E+02 -0.1200008E+02 -0.3800008E+02  0.5963791E+00  0.1711608E+00  0.4036209E+00  0.1158392E+00  0.0000000E+00
  0.0000000E+00  0.0000000E+00  0.2700000E+02 -0.9514765E+01 -0.3651476E+02  0.6257739E+00  0.1795971E+00  0.3742261E+00  0.1074029E+00  0.0000000E+00
  0.0000000E+00  0.0000000E+00  0.2800000E+02 -0.7265192E+01 -0.3526519E+02  0.6517189E+00  0.1870433E+00  0.3482811E+00  0.9995667E-01  0.0000000E+00
  0.0000000E+00  0.0000000E+00  0.2900000E+02 -0.5203270E+01 -0.3420327E+02  0.6744952E+00  0.1935801E+00  0.3255048E+00  0.9341987E-01  0.0000000E+00
  0.0000000E+00  0.0000000E+00  0.3000000E+02 -0.3292343E+01 -0.3329234E+02  0.6944486E+00  0.1993067E+00  0.3055514E+00  0.8769326E-01  0.0000000E+00
  0.0000000E+00  0.0000000E+00  0.3100000E+02 -0.1504337E+01 -0.3250434E+02  0.7119300E+00  0.2043239E+00  0.2880700E+00  0.8267608E-01  0.0000000E+00
  0.0000000E+00  0.0000000E+00  0.3200000E+02  0.1824549E+00 -0.3181755E+02  0.7272672E+00  0.2087257E+00  0.2727328E+00  0.7827431E-01  0.0000000E+00
  0.0000000E+00  0.0000000E+00  0.3300000E+02  0.1785004E+01 -0.3121500E+02  0.7407528E+00  0.2125961E+00  0.2592472E+00  0.7440394E-01  0.0000000E+00
  0.0000000E+00  0.0000000E+00  0.3400000E+02  0.3316735E+01 -0.3068327E+02  0.7526418E+00  0.2160082E+00  0.2473582E+00  0.7099179E-01  0.0000000E+00
  0.0000000E+00  0.0000000E+00  0.3500000E+02  0.4788390E+01 -0.3021161E+02  0.7631536E+00  0.2190251E+00  0.2368464E+00  0.6797492E-01  0.0000000E+00
  0.0000000E+00  0.0000000E+00  0.3600000E+02  0.6208660E+01 -0.2979134E+02  0.7724751E+00  0.2217003E+00  0.2275249E+00  0.6529965E-01  0.0000000E+00
  0.0000000E+00  0.0000000E+00  0.3700000E+02  0.7584648E+01 -0.2941535E+02  0.7807655E+00  0.2240797E+00  0.2192345E+00  0.6292031E-01  0.0000000E+00
  0.0000000E+00  0.0000000E+00  0.3800000E+02  0.8922216E+01 -0.2907778E+02  0.7881598E+00  0.2262019E+00  0.2118402E+00  0.6079813E-01  0.0000000E+00
  0.0000000E+00  0.0000000E+00  0.3900000E+02  0.1022625E+02 -0.2877375E+02  0.7947731E+00  0.2280999E+00  0.2052269E+00  0.5890012E-01  0.0000000E+00
  0.0000000E+00  0.0000000E+00  0.4000000E+02  0.1150084E+02 -0.2849916E+02  0.8007031E+00  0.2298018E+00  0.1992969E+00  0.5719820E-01  0.0000000E+00
  0.0000000E+00  0.0000000E+00  0.4100000E+02  0.1274946E+02 -0.2825054E+02  0.8060335E+00  0.2313316E+00  0.1939665E+00  0.5566839E-01  0.0000000E+00
  0.0000000E+00  0.0000000E+00  0.4200000E+02  0.1397507E+02 -0.2802493E+02  0.8108357E+00  0.2327098E+00  0.1891643E+00  0.5429016E-01  0.0000000E+00
  0.0000000E+00  0.0000000E+00  0.4300000E+02  0.1518020E+02 -0.2781980E+02  0.8151713E+00  0.2339542E+00  0.1848287E+00  0.5304584E-01  0.0000000E+00
  0.0000000E+00  0.0000000E+00  0.4400000E+02  0.1636704E+02 -0.2763296E+02  0.8190933E+00  0.2350798E+00  0.1809067E+00  0.5192022E-01  0.0000000E+00
  0.0000000E+00  0.0000000E+00  0.4500000E+02  0.1753748E+02 -0.2746252E+02  0.8226476E+00  0.2360999E+00  0.1773524E+00  0.5090013E-01  0.0000000E+00
  0.0000000E+00  0.0000000E+00  0.4600000E+02  0.1869319E+02 -0.2730681E+02  0.8258741E+00  0.2370259E+00  0.1741259E+00  0.4997412E-01  0.0000000E+00
  0.0000000E+00  0.0000000E+00  0.4700000E+02  0.1983560E+02 -0.2716440E+02  0.8288075E+00  0.2378678E+00  0.1711925E+00  0.4913224E-01  0.0000000E+00
  0.0000000E+00  0.0000000E+00  0.4800000E+02  0.2096602E+02 -0.2703398E+02  0.8314782E+00  0.2386342E+00  0.1685218E+00  0.4836576E-01  0.0000000E+00
  0.0000000E+00  0.0000000E+00  0.4900000E+02  0.2208555E+02 -0.2691445E+02  0.8339127E+00  0.2393330E+00  0.1660873E+00  0.4766704E-01  0.0000000E+00
  0.0000000E+00  0.0000000E+00  0.5000000E+02  0.2319520E+02 -0.2680480E+02  0.8361346E+00  0.2399706E+00  0.1638654E+00  0.4702936E-01  0.0000000E+00
  0.0000000E+00  0.0000000E+00  0.5100000E+02  0.2429587E+02 -0.2670413E+02  0.8381646E+00  0.2405532E+00  0.1618354E+00  0.4644676E-01  0.0000000E+00
  0.0000000E+00  0.0000000E+00  0.5200000E+02  0.2538835E+02 -0.2661165E+02  0.8400210E+00  0.2410860E+00  0.1599790E+00  0.4591398E-01  0.0000000E+00
  0.0000000E+00  0.0000000E+00  0.5300000E+02  0.2647336E+02 -0.2652664E+02  0.8417200E+00  0.2415736E+00  0.1582800E+00  0.4542636E-01  0.0000000E+00
  0.0000000E+00  0.0000000E+00  0.5400000E+02  0.2755154E+02 -0.2644846E+02  0.8432762E+00  0.2420203E+00  0.1567238E+00  0.4497972E-01  0.0000000E+00
  0.0000000E+00  0.0000000E+00  0.5500000E+02  0.2862346E+02 -0.2637654E+02  0.8447026E+00  0.2424296E+00  0.1552974E+00  0.4457036E-01  0.0000000E+00
  0.0000000E+00  0.0000000E+00  0.5600000E+02  0.2968966E+02 -0.2631034E+02  0.8460107E+00  0.2428051E+00  0.1539893E+00  0.4419493E-01  0.0000000E+00
  0.0000000E+00  0.0000000E+00  0.5700000E+02  0.3075059E+02 -0.2624941E+02  0.8472109E+00  0.2431495E+00  0.1527891E+00  0.4385047E-01  0.0000000E+00
  0.0000000E+00  0.0000000E+00  0.5800000E+02  0.3180670E+02 -0.2619330E+02  0.8483126E+00  0.2434657E+00  0.1516874E+00  0.4353427E-01  0.0000000E+00
  0.0000000E+00  0.0000000E+00  0.5900000E+02  0.3285837E+02 -0.2614163E+02  0.8493243E+00  0.2437561E+00  0.1506757E+00  0.4324393E-01  0.0000000E+00
  0.0000000E+00  0.0000000E+00  0.6000000E+02  0.3390595E+02 -0.2609405E+02  0.8502535E+00  0.2440228E+00  0.1497465E+00  0.4297725E-01  0.0000000E+00
  0.0000000E+00  0.0000000E+00  0.6100000E+02  0.3494978E+02 -0.2605022E+02  0.8511072E+00  0.2442678E+00  0.1488928E+00  0.4273224E-01  0.0000000E+00
  0.0000000E+00  0.0000000E+00  0.6200000E+02  0.3599014E+02 -0.2600986E+02  0.8518915E+00  0.2444929E+00  0.1481085E+00  0.4250713E-01  0.0000000E+00
  0.0000000E+00  0.0000000E+00  0.6300000E+02  0.3702731E+02 -0.2597269E+02  0.8526123E+00  0.2446997E+00  0.1473877E+00  0.4230027E-01  0.0000000E+00
  0.0000000E+00  0.0000000E+00  0.6400000E+02  0.3806153E+02 -0.2593847E+02  0.8532746E+00  0.2448898E+00  0.1467254E+00  0.4211018E-01  0.0000000E+00
  0.0000000E+00  0.0000000E+00  0.6500000E+02  0.3909303E+02 -0.2590697E+02  0.8538832E+00  0.2450645E+00  0.1461168E+00  0.4193552E-01  0.0000000E+00
  0.0000000E+00  0.0000000E+00  0.6600000E+02  0.4012203E+02 -0.2587797E+02  0.8544424E+00  0.2452250E+00  0.1455576E+00  0.4177504E-01  0.0000000E+00
  0.0000000E+00  0.0000000E+00  0.6700000E+02  0.4114870E+02 -0.2585130E+02  0.8549560E+00  0.2453724E+00  0.1450440E+00  0.4162762E-01  0.0000000E+00
  0.0000000E+00  0.0000000E+00  0.6800000E+02  0.4217324E+02 -0.2582676E+02  0.8554278E+00  0.2455078E+00  0.1445722E+00  0.4149223E-01  0.0000000E+00
  0.0000000E+00  0.0000000E+00  0.6900000E+02  0.4319580E+02 -0.2580420E+02  0.8558609E+00  0.2456321E+00  0.1441391E+00  0.4136792E-01  0.0000000E+00
  0.0000000E+00  0.0000000E+00  0.7000000E+02  0.4421653E+02 -0.2578347E+02  0.8562584E+00  0.2457462E+00  0.1437416E+00  0.4125383E-01  0.0000000E+00
