title = "dataset haverk"
variables = "x", "y", "z", "h_w", "p_w", "s_w", "theta_a", "s_a", "theta_g", "q_root"
zone t = "Flow variables, solution time =  6.000E-01 days        " i =   71, j =    1, k =    1,  f=point
  0.0000000E+00  0.0000000E+00  0.0000000E+00 -0.6150000E+02 -0.6150000E+02  0.3485631E+00  0.1000376E+00  0.6514369E+00  0.1869624E+00  0.0000000E+00
  0.0000000E+00  0.0000000E+00  0.1000000E+01 -0.6049991E+02 -0.6149991E+02  0.3485635E+00  0.1000377E+00  0.6514365E+00  0.1869623E+00  0.0000000E+00
  0.0000000E+00  0.0000000E+00  0.2000000E+01 -0.5949970E+02 -0.6149970E+02  0.3485644E+00  0.1000380E+00  0.6514356E+00  0.1869620E+00  0.0000000E+00
  0.0000000E+00  0.0000000E+00  0.3000000E+01 -0.5849907E+02 -0.6149907E+02  0.3485673E+00  0.1000388E+00  0.6514327E+00  0.1869612E+00  0.0000000E+00
  0.0000000E+00  0.0000000E+00  0.4000000E+01 -0.5749713E+02 -0.6149713E+02  0.3485761E+00  0.1000413E+00  0.6514239E+00  0.1869587E+00  0.0000000E+00
  0.0000000E+00  0.0000000E+00  0.5000000E+01 -0.5649115E+02 -0.6149115E+02  0.3486032E+00  0.1000491E+00  0.6513968E+00  0.1869509E+00  0.0000000E+00
  0.0000000E+00  0.0000000E+00  0.6000000E+01 -0.5547275E+02 -0.6147275E+02  0.3486867E+00  0.1000731E+00  0.6513133E+00  0.1869269E+00  0.0000000E+00
  0.0000000E+00  0.0000000E+00  0.7000000E+01 -0.5441642E+02 -0.6141642E+02  0.3489431E+00  0.1001467E+00  0.6510569E+00  0.1868533E+00  0.0000000E+00
  0.0000000E+00  0.0000000E+00  0.8000000E+01 -0.5324654E+02 -0.6124654E+02  0.3497217E+00  0.1003701E+00  0.6502783E+00  0.1866299E+00  0.0000000E+00
  0.0000000E+00  0.0000000E+00  0.9000000E+01 -0.5175777E+02 -0.6075777E+02  0.3520095E+00  0.1010267E+00  0.6479905E+00  0.1859733E+00  0.0000000E+00
  0.0000000E+00  0.0000000E+00  0.1000000E+02 -0.4951882E+02 -0.5951882E+02  0.3581397E+00  0.1027861E+00  0.6418603E+00  0.1842139E+00  0.0000000E+00
  0.0000000E+00  0.0000000E+00  0.1100000E+02 -0.4607945E+02 -0.5707945E+02  0.3717429E+00  0.1066902E+00  0.6282571E+00  0.1803098E+00  0.0000000E+00
  0.0000000E+00  0.0000000E+00  0.1200000E+02 -0.4162061E+02 -0.5362061E+02  0.3951622E+00  0.1134116E+00  0.6048378E+00  0.1735884E+00  0.0000000E+00
  0.0000000E+00  0.0000000E+00  0.1300000E+02 -0.3689408E+02 -0.4989408E+02  0.4271540E+00  0.1225932E+00  0.5728460E+00  0.1644068E+00  0.0000000E+00
  0.0000000E+00  0.0000000E+00  0.1400000E+02 -0.3247751E+02 -0.4647751E+02  0.4641839E+00  0.1332208E+00  0.5358161E+00  0.1537792E+00  0.0000000E+00
  0.0000000E+00  0.0000000E+00  0.1500000E+02 -0.2856858E+02 -0.4356858E+02  0.5026471E+00  0.1442597E+00  0.4973529E+00  0.1427403E+00  0.0000000E+00
  0.0000000E+00  0.0000000E+00  0.1600000E+02 -0.2515629E+02 -0.4115629E+02  0.5399409E+00  0.1549630E+00  0.4600591E+00  0.1320370E+00  0.0000000E+00
  0.0000000E+00  0.0000000E+00  0.1700000E+02 -0.2216393E+02 -0.3916393E+02  0.5745757E+00  0.1649032E+00  0.4254243E+00  0.1220968E+00  0.0000000E+00
  0.0000000E+00  0.0000000E+00  0.1800000E+02 -0.1950949E+02 -0.3750949E+02  0.6059007E+00  0.1738935E+00  0.3940993E+00  0.1131065E+00  0.0000000E+00
  0.0000000E+00  0.0000000E+00  0.1900000E+02 -0.1712339E+02 -0.3612339E+02  0.6337892E+00  0.1818975E+00  0.3662108E+00  0.1051025E+00  0.0000000E+00
  0.0000000E+00  0.0000000E+00  0.2000000E+02 -0.1495076E+02 -0.3495076E+02  0.6584001E+00  0.1889608E+00  0.3415999E+00  0.9803918E-01  0.0000000E+00
  0.0000000E+00  0.0000000E+00  0.2100000E+02 -0.1294932E+02 -0.3394932E+02  0.6800243E+00  0.1951670E+00  0.3199757E+00  0.9183303E-01  0.0000000E+00
  0.0000000E+00  0.0000000E+00  0.2200000E+02 -0.1108659E+02 -0.3308659E+02  0.6989968E+00  0.2006121E+00  0.3010032E+00  0.8638793E-01  0.0000000E+00
  0.0000000E+00  0.0000000E+00  0.2300000E+02 -0.9337515E+01 -0.3233751E+02  0.7156492E+00  0.2053913E+00  0.2843508E+00  0.8160869E-01  0.0000000E+00
  0.0000000E+00  0.0000000E+00  0.2400000E+02 -0.7682544E+01 -0.3168254E+02  0.7302879E+00  0.2095926E+00  0.2697121E+00  0.7740738E-01  0.0000000E+00
  0.0000000E+00  0.0000000E+00  0.2500000E+02 -0.6106292E+01 -0.3110629E+02  0.7431853E+00  0.2132942E+00  0.2568147E+00  0.7370583E-01  0.0000000E+00
  0.0000000E+00  0.0000000E+00  0.2600000E+02 -0.4596505E+01 -0.3059650E+02  0.7545786E+00  0.2165640E+00  0.2454214E+00  0.7043595E-01  0.0000000E+00
  0.0000000E+00  0.0000000E+00  0.2700000E+02 -0.3143317E+01 -0.3014332E+02  0.7646716E+00  0.2194608E+00  0.2353284E+00  0.6753924E-01  0.0000000E+00
  0.0000000E+00  0.0000000E+00  0.2800000E+02 -0.1738704E+01 -0.2973870E+02  0.7736388E+00  0.2220343E+00  0.2263612E+00  0.6496567E-01  0.0000000E+00
  0.0000000E+00  0.0000000E+00  0.2900000E+02 -0.3760743E+00 -0.2937607E+02  0.7816284E+00  0.2243273E+00  0.2183716E+00  0.6267265E-01  0.0000000E+00
  0.0000000E+00  0.0000000E+00  0.3000000E+02  0.9500344E+00 -0.2904997E+02  0.7887669E+00  0.2263761E+00  0.2112331E+00  0.6062391E-01  0.0000000E+00
  0.0000000E+00  0.0000000E+00  0.3100000E+02  0.2244190E+01 -0.2875581E+02  0.7951619E+00  0.2282115E+00  0.2048381E+00  0.5878854E-01  0.0000000E+00
  0.0000000E+00  0.0000000E+00  0.3200000E+02  0.3510242E+01 -0.2848976E+02  0.8009054E+00  0.2298598E+00  0.1990946E+00  0.5714015E-01  0.0000000E+00
  0.0000000E+00  0.0000000E+00  0.3300000E+02  0.4751456E+01 -0.2824854E+02  0.8060760E+00  0.2313438E+00  0.1939240E+00  0.5565617E-01  0.0000000E+00
  0.0000000E+00  0.0000000E+00  0.3400000E+02  0.5970624E+01 -0.2802938E+02  0.8107414E+00  0.2326828E+00  0.1892586E+00  0.5431722E-01  0.0000000E+00
  0.0000000E+00  0.0000000E+00  0.3500000E+02  0.7170148E+01 -0.2782985E+02  0.8149596E+00  0.2338934E+00  0.1850404E+00  0.5310661E-01  0.0000000E+00
  0.0000000E+00  0.0000000E+00  0.3600000E+02  0.8352103E+01 -0.2764790E+02  0.8187808E+00  0.2349901E+00  0.1812192E+00  0.5200990E-01  0.0000000E+00
  0.0000000E+00  0.0000000E+00  0.3700000E+02  0.9518296E+01 -0.2748170E+02  0.8222488E+00  0.2359854E+00  0.1777512E+00  0.5101461E-01  0.0000000E+00
  0.0000000E+00  0.0000000E+00  0.3800000E+02  0.1067030E+02 -0.2732970E+02  0.8254013E+00  0.2368902E+00  0.1745987E+00  0.5010984E-01  0.0000000E+00
  0.0000000E+00  0.0000000E+00  0.3900000E+02  0.1180951E+02 -0.2719049E+02  0.8282714E+00  0.2377139E+00  0.1717286E+00  0.4928610E-01  0.0000000E+00
  0.0000000E+00  0.0000000E+00  0.4000000E+02  0.1293714E+02 -0.2706286E+02  0.8308882E+00  0.2384649E+00  0.1691118E+00  0.4853509E-01  0.0000000E+00
  0.0000000E+00  0.0000000E+00  0.4100000E+02  0.1405428E+02 -0.2694572E+02  0.8332771E+00  0.2391505E+00  0.1667229E+00  0.4784948E-01  0.0000000E+00
  0.0000000E+00  0.0000000E+00  0.4200000E+02  0.1516187E+02 -0.2683813E+02  0.8354605E+00  0.2397772E+00  0.1645395E+00  0.4722285E-01  0.0000000E+00
  0.0000000E+00  0.0000000E+00  0.4300000E+02  0.1626079E+02 -0.2673921E+02  0.8374582E+00  0.2403505E+00  0.1625418E+00  0.4664948E-01  0.0000000E+00
  0.0000000E+00  0.0000000E+00  0.4400000E+02  0.1735179E+02 -0.2664821E+02  0.8392880E+00  0.2408757E+00  0.1607120E+00  0.4612435E-01  0.0000000E+00
  0.0000000E+00  0.0000000E+00  0.4500000E+02  0.1843556E+02 -0.2656444E+02  0.8409653E+00  0.2413570E+00  0.1590347E+00  0.4564295E-01  0.0000000E+00
  0.0000000E+00  0.0000000E+00  0.4600000E+02  0.1951272E+02 -0.2648728E+02  0.8425042E+00  0.2417987E+00  0.1574958E+00  0.4520129E-01  0.0000000E+00
  0.0000000E+00  0.0000000E+00  0.4700000E+02  0.2058383E+02 -0.2641617E+02  0.8439171E+00  0.2422042E+00  0.1560829E+00  0.4479578E-01  0.0000000E+00
  0.0000000E+00  0.0000000E+00  0.4800000E+02  0.2164938E+02 -0.2635062E+02  0.8452152E+00  0.2425768E+00  0.1547848E+00  0.4442323E-01  0.0000000E+00
  0.0000000E+00  0.0000000E+00  0.4900000E+02  0.2270984E+02 -0.2629016E+02  0.8464085E+00  0.2429192E+00  0.1535915E+00  0.4408076E-01  0.0000000E+00
  0.0000000E+00  0.0000000E+00  0.5000000E+02  0.2376561E+02 -0.2623439E+02  0.8475060E+00  0.2432342E+00  0.1524940E+00  0.4376576E-01  0.0000000E+00
  0.0000000E+00  0.0000000E+00  0.5100000E+02  0.2481708E+02 -0.2618292E+02  0.8485160E+00  0.2435241E+00  0.1514840E+00  0.4347592E-01  0.0000000E+00
  0.0000000E+00  0.0000000E+00  0.5200000E+02  0.2586458E+02 -0.2613542E+02  0.8494456E+00  0.2437909E+00  0.1505544E+00  0.4320911E-01  0.0000000E+00
  0.0000000E+00  0.0000000E+00  0.5300000E+02  0.2690843E+02 -0.2609157E+02  0.8503017E+00  0.2440366E+00  0.1496983E+00  0.4296342E-01  0.0000000E+00
  0.0000000E+00  0.0000000E+00  0.5400000E+02  0.2794891E+02 -0.2605109E+02  0.8510902E+00  0.2442629E+00  0.1489098E+00  0.4273712E-01  0.0000000E+00
  0.0000000E+00  0.0000000E+00  0.5500000E+02  0.2898628E+02 -0.2601372E+02  0.8518166E+00  0.2444714E+00  0.1481834E+00  0.4252863E-01  0.0000000E+00
  0.0000000E+00  0.0000000E+00  0.5600000E+02  0.3002079E+02 -0.2597921E+02  0.8524860E+00  0.2446635E+00  0.1475140E+00  0.4233651E-01  0.0000000E+00
  0.0000000E+00  0.0000000E+00  0.5700000E+02  0.3105265E+02 -0.2594735E+02  0.8531029E+00  0.2448405E+00  0.1468971E+00  0.4215947E-01  0.0000000E+00
  0.0000000E+00  0.0000000E+00  0.5800000E+02  0.3208206E+02 -0.2591794E+02  0.8536714E+00  0.2450037E+00  0.1463286E+00  0.4199630E-01  0.0000000E+00
  0.0000000E+00  0.0000000E+00  0.5900000E+02  0.3310921E+02 -0.2589079E+02  0.8541954E+00  0.2451541E+00  0.1458046E+00  0.4184591E-01  0.0000000E+00
  0.0000000E+00  0.0000000E+00  0.6000000E+02  0.3413428E+02 -0.2586572E+02  0.8546784E+00  0.2452927E+00  0.1453216E+00  0.4170731E-01  0.0000000E+00
  0.0000000E+00  0.0000000E+00  0.6100000E+02  0.3515740E+02 -0.2584260E+02  0.8551234E+00  0.2454204E+00  0.1448766E+00  0.4157958E-01  0.0000000E+00
  0.0000000E+00  0.0000000E+00  0.6200000E+02  0.3617874E+02 -0.2582126E+02  0.8555335E+00  0.2455381E+00  0.1444665E+00  0.4146188E-01  0.0000000E+00
  0.0000000E+00  0.0000000E+00  0.6300000E+02  0.3719843E+02 -0.2580157E+02  0.8559114E+00  0.2456466E+00  0.1440886E+00  0.4135343E-01  0.0000000E+00
  0.0000000E+00  0.0000000E+00  0.6400000E+02  0.3821658E+02 -0.2578342E+02  0.8562594E+00  0.2457465E+00  0.1437406E+00  0.4125354E-01  0.0000000E+00
  0.0000000E+00  0.0000000E+00  0.6500000E+02  0.3923331E+02 -0.2576669E+02  0.8565800E+00  0.2458384E+00  0.1434200E+00  0.4116155E-01  0.0000000E+00
  0.0000000E+00  0.0000000E+00  0.6600000E+02  0.4024873E+02 -0.2575127E+02  0.8568751E+00  0.2459231E+00  0.1431249E+00  0.4107686E-01  0.0000000E+00
  0.0000000E+00  0.0000000E+00  0.6700000E+02  0.4126293E+02 -0.2573707E+02  0.8571467E+00  0.2460011E+00  0.1428533E+00  0.4099891E-01  0.0000000E+00
  0.0000000E+00  0.0000000E+00  0.6800000E+02  0.4227601E+02 -0.2572399E+02  0.8573965E+00  0.2460728E+00  0.1426035E+00  0.4092720E-01  0.0000000E+00
  0.0000000E+00  0.0000000E+00  0.6900000E+02  0.4328805E+02 -0.2571195E+02  0.8576263E+00  0.2461387E+00  0.1423737E+00  0.4086125E-01  0.0000000E+00
  0.0000000E+00  0.0000000E+00  0.7000000E+02  0.4429912E+02 -0.2570088E+02  0.8578375E+00  0.2461994E+00  0.1421625E+00  0.4080064E-01  0.0000000E+00
