title = "dataset haverk"
variables = "x", "y", "z", "h_w", "p_w", "s_w", "theta_a", "s_a", "theta_g"
zone t = "Flow variables, solution time =  3.000E-01 days        " i =   71, j =    1, k =    1,  f=point
  0.0000000E+00  0.0000000E+00  0.0000000E+00 -0.6150000E+02 -0.6150000E+02  0.3485631E+00  0.1000376E+00  0.6514369E+00  0.1869624E+00
  0.0000000E+00  0.0000000E+00  0.1000000E+01 -0.6050000E+02 -0.6150000E+02  0.3485631E+00  0.1000376E+00  0.6514369E+00  0.1869624E+00
  0.0000000E+00  0.0000000E+00  0.2000000E+01 -0.5950000E+02 -0.6150000E+02  0.3485631E+00  0.1000376E+00  0.6514369E+00  0.1869624E+00
  0.0000000E+00  0.0000000E+00  0.3000000E+01 -0.5850000E+02 -0.6150000E+02  0.3485631E+00  0.1000376E+00  0.6514369E+00  0.1869624E+00
  0.0000000E+00  0.0000000E+00  0.4000000E+01 -0.5750000E+02 -0.6150000E+02  0.3485631E+00  0.1000376E+00  0.6514369E+00  0.1869624E+00
  0.0000000E+00  0.0000000E+00  0.5000000E+01 -0.5650000E+02 -0.6150000E+02  0.3485631E+00  0.1000376E+00  0.6514369E+00  0.1869624E+00
  0.0000000E+00  0.0000000E+00  0.6000000E+01 -0.5550000E+02 -0.6150000E+02  0.3485631E+00  0.1000376E+00  0.6514369E+00  0.1869624E+00
  0.0000000E+00  0.0000000E+00  0.7000000E+01 -0.5450000E+02 -0.6150000E+02  0.3485631E+00  0.1000376E+00  0.6514369E+00  0.1869624E+00
  0.0000000E+00  0.0000000E+00  0.8000000E+01 -0.5350000E+02 -0.6150000E+02  0.3485631E+00  0.1000376E+00  0.6514369E+00  0.1869624E+00
  0.0000000E+00  0.0000000E+00  0.9000000E+01 -0.5250000E+02 -0.6150000E+02  0.3485631E+00  0.1000376E+00  0.6514369E+00  0.1869624E+00
  0.0000000E+00  0.0000000E+00  0.1000000E+02 -0.5150000E+02 -0.6150000E+02  0.3485631E+00  0.1000376E+00  0.6514369E+00  0.1869624E+00
  0.0000000E+00  0.0000000E+00  0.1100000E+02 -0.5050000E+02 -0.6150000E+02  0.3485631E+00  0.1000376E+00  0.6514369E+00  0.1869624E+00
  0.0000000E+00  0.0000000E+00  0.1200000E+02 -0.4950000E+02 -0.6150000E+02  0.3485631E+00  0.1000376E+00  0.6514369E+00  0.1869624E+00
  0.0000000E+00  0.0000000E+00  0.1300000E+02 -0.4850000E+02 -0.6150000E+02  0.3485631E+00  0.1000376E+00  0.6514369E+00  0.1869624E+00
  0.0000000E+00  0.0000000E+00  0.1400000E+02 -0.4750000E+02 -0.6150000E+02  0.3485631E+00  0.1000376E+00  0.6514369E+00  0.1869624E+00
  0.0000000E+00  0.0000000E+00  0.1500000E+02 -0.4650000E+02 -0.6150000E+02  0.3485631E+00  0.1000376E+00  0.6514369E+00  0.1869624E+00
  0.0000000E+00  0.0000000E+00  0.1600000E+02 -0.4550000E+02 -0.6150000E+02  0.3485631E+00  0.1000376E+00  0.6514369E+00  0.1869624E+00
  0.0000000E+00  0.0000000E+00  0.1700000E+02 -0.4450000E+02 -0.6150000E+02  0.3485631E+00  0.1000376E+00  0.6514369E+00  0.1869624E+00
  0.0000000E+00  0.0000000E+00  0.1800000E+02 -0.4350000E+02 -0.6150000E+02  0.3485631E+00  0.1000376E+00  0.6514369E+00  0.1869624E+00
  0.0000000E+00  0.0000000E+00  0.1900000E+02 -0.4250000E+02 -0.6150000E+02  0.3485631E+00  0.1000376E+00  0.6514369E+00  0.1869624E+00
  0.0000000E+00  0.0000000E+00  0.2000000E+02 -0.4150000E+02 -0.6150000E+02  0.3485631E+00  0.1000376E+00  0.6514369E+00  0.1869624E+00
  0.0000000E+00  0.0000000E+00  0.2100000E+02 -0.4050000E+02 -0.6150000E+02  0.3485631E+00  0.1000376E+00  0.6514369E+00  0.1869624E+00
  0.0000000E+00  0.0000000E+00  0.2200000E+02 -0.3950000E+02 -0.6150000E+02  0.3485631E+00  0.1000376E+00  0.6514369E+00  0.1869624E+00
  0.0000000E+00  0.0000000E+00  0.2300000E+02 -0.3850000E+02 -0.6150000E+02  0.3485631E+00  0.1000376E+00  0.6514369E+00  0.1869624E+00
  0.0000000E+00  0.0000000E+00  0.2400000E+02 -0.3750000E+02 -0.6150000E+02  0.3485631E+00  0.1000376E+00  0.6514369E+00  0.1869624E+00
  0.0000000E+00  0.0000000E+00  0.2500000E+02 -0.3650000E+02 -0.6150000E+02  0.3485631E+00  0.1000376E+00  0.6514369E+00  0.1869624E+00
  0.0000000E+00  0.0000000E+00  0.2600000E+02 -0.3549999E+02 -0.6149999E+02  0.3485631E+00  0.1000376E+00  0.6514369E+00  0.1869624E+00
  0.0000000E+00  0.0000000E+00  0.2700000E+02 -0.3449996E+02 -0.6149996E+02  0.3485632E+00  0.1000377E+00  0.6514368E+00  0.1869623E+00
  0.0000000E+00  0.0000000E+00  0.2800000E+02 -0.3349985E+02 -0.6149985E+02  0.3485637E+00  0.1000378E+00  0.6514363E+00  0.1869622E+00
  0.0000000E+00  0.0000000E+00  0.2900000E+02 -0.3249948E+02 -0.6149948E+02  0.3485654E+00  0.1000383E+00  0.6514346E+00  0.1869617E+00
  0.0000000E+00  0.0000000E+00  0.3000000E+02 -0.3149820E+02 -0.6149820E+02  0.3485712E+00  0.1000399E+00  0.6514288E+00  0.1869601E+00
  0.0000000E+00  0.0000000E+00  0.3100000E+02 -0.3049367E+02 -0.6149367E+02  0.3485918E+00  0.1000458E+00  0.6514082E+00  0.1869542E+00
  0.0000000E+00  0.0000000E+00  0.3200000E+02 -0.2947762E+02 -0.6147762E+02  0.3486646E+00  0.1000667E+00  0.6513354E+00  0.1869333E+00
  0.0000000E+00  0.0000000E+00  0.3300000E+02 -0.2842069E+02 -0.6142069E+02  0.3489236E+00  0.1001411E+00  0.6510764E+00  0.1868589E+00
  0.0000000E+00  0.0000000E+00  0.3400000E+02 -0.2722201E+02 -0.6122201E+02  0.3498348E+00  0.1004026E+00  0.6501652E+00  0.1865974E+00
  0.0000000E+00  0.0000000E+00  0.3500000E+02 -0.2557868E+02 -0.6057868E+02  0.3528658E+00  0.1012725E+00  0.6471342E+00  0.1857275E+00
  0.0000000E+00  0.0000000E+00  0.3600000E+02 -0.2288745E+02 -0.5888745E+02  0.3614568E+00  0.1037381E+00  0.6385432E+00  0.1832619E+00
  0.0000000E+00  0.0000000E+00  0.3700000E+02 -0.1878842E+02 -0.5578842E+02  0.3798675E+00  0.1090220E+00  0.6201325E+00  0.1779780E+00
  0.0000000E+00  0.0000000E+00  0.3800000E+02 -0.1387995E+02 -0.5187995E+02  0.4091304E+00  0.1174204E+00  0.5908696E+00  0.1695796E+00
  0.0000000E+00  0.0000000E+00  0.3900000E+02 -0.9042130E+01 -0.4804213E+02  0.4462110E+00  0.1280626E+00  0.5537890E+00  0.1589374E+00
  0.0000000E+00  0.0000000E+00  0.4000000E+02 -0.4710631E+01 -0.4471063E+02  0.4867271E+00  0.1396907E+00  0.5132729E+00  0.1473093E+00
  0.0000000E+00  0.0000000E+00  0.4100000E+02 -0.9524569E+00 -0.4195246E+02  0.5270720E+00  0.1512697E+00  0.4729280E+00  0.1357303E+00
  0.0000000E+00  0.0000000E+00  0.4200000E+02  0.2304728E+01 -0.3969527E+02  0.5650018E+00  0.1621555E+00  0.4349982E+00  0.1248445E+00
  0.0000000E+00  0.0000000E+00  0.4300000E+02  0.5158231E+01 -0.3784177E+02  0.5994308E+00  0.1720366E+00  0.4005692E+00  0.1149634E+00
  0.0000000E+00  0.0000000E+00  0.4400000E+02  0.7694064E+01 -0.3630594E+02  0.6300375E+00  0.1808208E+00  0.3699625E+00  0.1061792E+00
  0.0000000E+00  0.0000000E+00  0.4500000E+02  0.9980244E+01 -0.3501976E+02  0.6569292E+00  0.1885387E+00  0.3430708E+00  0.9846131E-01
  0.0000000E+00  0.0000000E+00  0.4600000E+02  0.1206871E+02 -0.3393129E+02  0.6804180E+00  0.1952800E+00  0.3195820E+00  0.9172004E-01
  0.0000000E+00  0.0000000E+00  0.4700000E+02  0.1399886E+02 -0.3300114E+02  0.7008895E+00  0.2011553E+00  0.2991105E+00  0.8584470E-01
  0.0000000E+00  0.0000000E+00  0.4800000E+02  0.1580070E+02 -0.3219930E+02  0.7187340E+00  0.2062766E+00  0.2812660E+00  0.8072335E-01
  0.0000000E+00  0.0000000E+00  0.4900000E+02  0.1749729E+02 -0.3150271E+02  0.7343128E+00  0.2107478E+00  0.2656872E+00  0.7625221E-01
  0.0000000E+00  0.0000000E+00  0.5000000E+02  0.1910659E+02 -0.3089341E+02  0.7479466E+00  0.2146607E+00  0.2520534E+00  0.7233932E-01
  0.0000000E+00  0.0000000E+00  0.5100000E+02  0.2064275E+02 -0.3035725E+02  0.7599125E+00  0.2180949E+00  0.2400875E+00  0.6890512E-01
  0.0000000E+00  0.0000000E+00  0.5200000E+02  0.2211701E+02 -0.2988299E+02  0.7704468E+00  0.2211182E+00  0.2295532E+00  0.6588177E-01
  0.0000000E+00  0.0000000E+00  0.5300000E+02  0.2353846E+02 -0.2946154E+02  0.7797499E+00  0.2237882E+00  0.2202501E+00  0.6321178E-01
  0.0000000E+00  0.0000000E+00  0.5400000E+02  0.2491448E+02 -0.2908552E+02  0.7879909E+00  0.2261534E+00  0.2120091E+00  0.6084660E-01
  0.0000000E+00  0.0000000E+00  0.5500000E+02  0.2625115E+02 -0.2874885E+02  0.7953127E+00  0.2282548E+00  0.2046873E+00  0.5874525E-01
  0.0000000E+00  0.0000000E+00  0.5600000E+02  0.2755353E+02 -0.2844647E+02  0.8018360E+00  0.2301269E+00  0.1981640E+00  0.5687308E-01
  0.0000000E+00  0.0000000E+00  0.5700000E+02  0.2882584E+02 -0.2817416E+02  0.8076629E+00  0.2317993E+00  0.1923371E+00  0.5520074E-01
  0.0000000E+00  0.0000000E+00  0.5800000E+02  0.3007164E+02 -0.2792836E+02  0.8128806E+00  0.2332967E+00  0.1871194E+00  0.5370328E-01
  0.0000000E+00  0.0000000E+00  0.5900000E+02  0.3129398E+02 -0.2770602E+02  0.8175630E+00  0.2346406E+00  0.1824370E+00  0.5235942E-01
  0.0000000E+00  0.0000000E+00  0.6000000E+02  0.3249546E+02 -0.2750454E+02  0.8217736E+00  0.2358490E+00  0.1782264E+00  0.5115097E-01
  0.0000000E+00  0.0000000E+00  0.6100000E+02  0.3367832E+02 -0.2732168E+02  0.8255670E+00  0.2369377E+00  0.1744330E+00  0.5006227E-01
  0.0000000E+00  0.0000000E+00  0.6200000E+02  0.3484450E+02 -0.2715550E+02  0.8289902E+00  0.2379202E+00  0.1710098E+00  0.4907982E-01
  0.0000000E+00  0.0000000E+00  0.6300000E+02  0.3599569E+02 -0.2700431E+02  0.8320838E+00  0.2388081E+00  0.1679162E+00  0.4819194E-01
  0.0000000E+00  0.0000000E+00  0.6400000E+02  0.3713338E+02 -0.2686662E+02  0.8348834E+00  0.2396115E+00  0.1651166E+00  0.4738847E-01
  0.0000000E+00  0.0000000E+00  0.6500000E+02  0.3825888E+02 -0.2674112E+02  0.8374197E+00  0.2403395E+00  0.1625803E+00  0.4666055E-01
  0.0000000E+00  0.0000000E+00  0.6600000E+02  0.3937332E+02 -0.2662668E+02  0.8397198E+00  0.2409996E+00  0.1602802E+00  0.4600041E-01
  0.0000000E+00  0.0000000E+00  0.6700000E+02  0.4047775E+02 -0.2652225E+02  0.8418075E+00  0.2415988E+00  0.1581925E+00  0.4540124E-01
  0.0000000E+00  0.0000000E+00  0.6800000E+02  0.4157307E+02 -0.2642693E+02  0.8437038E+00  0.2421430E+00  0.1562962E+00  0.4485701E-01
  0.0000000E+00  0.0000000E+00  0.6900000E+02  0.4266010E+02 -0.2633990E+02  0.8454271E+00  0.2426376E+00  0.1545729E+00  0.4436243E-01
  0.0000000E+00  0.0000000E+00  0.7000000E+02  0.4373956E+02 -0.2626044E+02  0.8469939E+00  0.2430872E+00  0.1530061E+00  0.4391275E-01
