title = "dataset haverk"
variables = "x", "y", "z", "h_w", "p_w", "s_w", "theta_a", "s_a", "theta_g", "q_root"
zone t = "Flow variables, solution time =  7.000E-01 days        " i =   71, j =    1, k =    1,  f=point
  0.0000000E+00  0.0000000E+00  0.0000000E+00 -0.6150000E+02 -0.6150000E+02  0.3485631E+00  0.1000376E+00  0.6514369E+00  0.1869624E+00  0.0000000E+00
  0.0000000E+00  0.0000000E+00  0.1000000E+01 -0.5958676E+02 -0.6058676E+02  0.3528270E+00  0.1012613E+00  0.6471730E+00  0.1857387E+00  0.0000000E+00
  0.0000000E+00  0.0000000E+00  0.2000000E+01 -0.5694563E+02 -0.5894563E+02  0.3611455E+00  0.1036488E+00  0.6388545E+00  0.1833512E+00  0.0000000E+00
  0.0000000E+00  0.0000000E+00  0.3000000E+01 -0.5311059E+02 -0.5611059E+02  0.3777752E+00  0.1084215E+00  0.6222248E+00  0.1785785E+00  0.0000000E+00
  0.0000000E+00  0.0000000E+00  0.4000000E+01 -0.4847273E+02 -0.5247273E+02  0.4041921E+00  0.1160031E+00  0.5958079E+00  0.1709969E+00  0.0000000E+00
  0.0000000E+00  0.0000000E+00  0.5000000E+01 -0.4379639E+02 -0.4879639E+02  0.4381715E+00  0.1257552E+00  0.5618285E+00  0.1612448E+00  0.0000000E+00
  0.0000000E+00  0.0000000E+00  0.6000000E+01 -0.3953159E+02 -0.4553159E+02  0.4759452E+00  0.1365963E+00  0.5240548E+00  0.1504037E+00  0.0000000E+00
  0.0000000E+00  0.0000000E+00  0.7000000E+01 -0.3578719E+02 -0.4278719E+02  0.5141747E+00  0.1475681E+00  0.4858253E+00  0.1394319E+00  0.0000000E+00
  0.0000000E+00  0.0000000E+00  0.8000000E+01 -0.3251908E+02 -0.4051908E+02  0.5506413E+00  0.1580341E+00  0.4493587E+00  0.1289659E+00  0.0000000E+00
  0.0000000E+00  0.0000000E+00  0.9000000E+01 -0.2964440E+02 -0.3864440E+02  0.5841692E+00  0.1676566E+00  0.4158308E+00  0.1193434E+00  0.0000000E+00
  0.0000000E+00  0.0000000E+00  0.1000000E+02 -0.2708393E+02 -0.3708393E+02  0.6143123E+00  0.1763076E+00  0.3856877E+00  0.1106924E+00  0.0000000E+00
  0.0000000E+00  0.0000000E+00  0.1100000E+02 -0.2477270E+02 -0.3577270E+02  0.6410593E+00  0.1839840E+00  0.3589407E+00  0.1030160E+00  0.0000000E+00
  0.0000000E+00  0.0000000E+00  0.1200000E+02 -0.2266009E+02 -0.3466009E+02  0.6646250E+00  0.1907474E+00  0.3353750E+00  0.9625262E-01  0.0000000E+00
  0.0000000E+00  0.0000000E+00  0.1300000E+02 -0.2070720E+02 -0.3370720E+02  0.6853211E+00  0.1966872E+00  0.3146789E+00  0.9031284E-01  0.0000000E+00
  0.0000000E+00  0.0000000E+00  0.1400000E+02 -0.1888415E+02 -0.3288415E+02  0.7034840E+00  0.2018999E+00  0.2965160E+00  0.8510010E-01  0.0000000E+00
  0.0000000E+00  0.0000000E+00  0.1500000E+02 -0.1716781E+02 -0.3216781E+02  0.7194374E+00  0.2064785E+00  0.2805626E+00  0.8052146E-01  0.0000000E+00
  0.0000000E+00  0.0000000E+00  0.1600000E+02 -0.1554010E+02 -0.3154010E+02  0.7334760E+00  0.2105076E+00  0.2665240E+00  0.7649238E-01  0.0000000E+00
  0.0000000E+00  0.0000000E+00  0.1700000E+02 -0.1398674E+02 -0.3098674E+02  0.7458596E+00  0.2140617E+00  0.2541404E+00  0.7293830E-01  0.0000000E+00
  0.0000000E+00  0.0000000E+00  0.1800000E+02 -0.1249633E+02 -0.3049633E+02  0.7568131E+00  0.2172053E+00  0.2431869E+00  0.6979465E-01  0.0000000E+00
  0.0000000E+00  0.0000000E+00  0.1900000E+02 -0.1105966E+02 -0.3005966E+02  0.7665295E+00  0.2199940E+00  0.2334705E+00  0.6700603E-01  0.0000000E+00
  0.0000000E+00  0.0000000E+00  0.2000000E+02 -0.9669210E+01 -0.2966921E+02  0.7751736E+00  0.2224748E+00  0.2248264E+00  0.6452516E-01  0.0000000E+00
  0.0000000E+00  0.0000000E+00  0.2100000E+02 -0.8318790E+01 -0.2931879E+02  0.7828858E+00  0.2246882E+00  0.2171142E+00  0.6231179E-01  0.0000000E+00
  0.0000000E+00  0.0000000E+00  0.2200000E+02 -0.7003255E+01 -0.2900326E+02  0.7897853E+00  0.2266684E+00  0.2102147E+00  0.6033162E-01  0.0000000E+00
  0.0000000E+00  0.0000000E+00  0.2300000E+02 -0.5718296E+01 -0.2871830E+02  0.7959742E+00  0.2284446E+00  0.2040258E+00  0.5855541E-01  0.0000000E+00
  0.0000000E+00  0.0000000E+00  0.2400000E+02 -0.4460270E+01 -0.2846027E+02  0.8015394E+00  0.2300418E+00  0.1984606E+00  0.5695818E-01  0.0000000E+00
  0.0000000E+00  0.0000000E+00  0.2500000E+02 -0.3226081E+01 -0.2822608E+02  0.8065557E+00  0.2314815E+00  0.1934443E+00  0.5551852E-01  0.0000000E+00
  0.0000000E+00  0.0000000E+00  0.2600000E+02 -0.2013076E+01 -0.2801308E+02  0.8110870E+00  0.2327820E+00  0.1889130E+00  0.5421802E-01  0.0000000E+00
  0.0000000E+00  0.0000000E+00  0.2700000E+02 -0.8189698E+00 -0.2781897E+02  0.8151888E+00  0.2339592E+00  0.1848112E+00  0.5304081E-01  0.0000000E+00
  0.0000000E+00  0.0000000E+00  0.2800000E+02  0.3582169E+00 -0.2764178E+02  0.8189088E+00  0.2350268E+00  0.1810912E+00  0.5197318E-01  0.0000000E+00
  0.0000000E+00  0.0000000E+00  0.2900000E+02  0.1520208E+01 -0.2747979E+02  0.8222885E+00  0.2359968E+00  0.1777115E+00  0.5100319E-01  0.0000000E+00
  0.0000000E+00  0.0000000E+00  0.3000000E+02  0.2668513E+01 -0.2733149E+02  0.8253642E+00  0.2368795E+00  0.1746358E+00  0.5012046E-01  0.0000000E+00
  0.0000000E+00  0.0000000E+00  0.3100000E+02  0.3804458E+01 -0.2719554E+02  0.8281675E+00  0.2376841E+00  0.1718325E+00  0.4931593E-01  0.0000000E+00
  0.0000000E+00  0.0000000E+00  0.3200000E+02  0.4929214E+01 -0.2707079E+02  0.8307261E+00  0.2384184E+00  0.1692739E+00  0.4858162E-01  0.0000000E+00
  0.0000000E+00  0.0000000E+00  0.3300000E+02  0.6043819E+01 -0.2695618E+02  0.8330643E+00  0.2390895E+00  0.1669357E+00  0.4791054E-01  0.0000000E+00
  0.0000000E+00  0.0000000E+00  0.3400000E+02  0.7149195E+01 -0.2685080E+02  0.8352038E+00  0.2397035E+00  0.1647962E+00  0.4729652E-01  0.0000000E+00
  0.0000000E+00  0.0000000E+00  0.3500000E+02  0.8246166E+01 -0.2675383E+02  0.8371635E+00  0.2402659E+00  0.1628365E+00  0.4673408E-01  0.0000000E+00
  0.0000000E+00  0.0000000E+00  0.3600000E+02  0.9335468E+01 -0.2666453E+02  0.8389604E+00  0.2407816E+00  0.1610396E+00  0.4621836E-01  0.0000000E+00
  0.0000000E+00  0.0000000E+00  0.3700000E+02  0.1041776E+02 -0.2658224E+02  0.8406095E+00  0.2412549E+00  0.1593905E+00  0.4574506E-01  0.0000000E+00
  0.0000000E+00  0.0000000E+00  0.3800000E+02  0.1149364E+02 -0.2650636E+02  0.8421243E+00  0.2416897E+00  0.1578757E+00  0.4531032E-01  0.0000000E+00
  0.0000000E+00  0.0000000E+00  0.3900000E+02  0.1256365E+02 -0.2643635E+02  0.8435168E+00  0.2420893E+00  0.1564832E+00  0.4491069E-01  0.0000000E+00
  0.0000000E+00  0.0000000E+00  0.4000000E+02  0.1362827E+02 -0.2637173E+02  0.8447977E+00  0.2424569E+00  0.1552023E+00  0.4454307E-01  0.0000000E+00
  0.0000000E+00  0.0000000E+00  0.4100000E+02  0.1468794E+02 -0.2631206E+02  0.8459767E+00  0.2427953E+00  0.1540233E+00  0.4420469E-01  0.0000000E+00
  0.0000000E+00  0.0000000E+00  0.4200000E+02  0.1574305E+02 -0.2625695E+02  0.8470625E+00  0.2431069E+00  0.1529375E+00  0.4389305E-01  0.0000000E+00
  0.0000000E+00  0.0000000E+00  0.4300000E+02  0.1679398E+02 -0.2620602E+02  0.8480631E+00  0.2433941E+00  0.1519369E+00  0.4360589E-01  0.0000000E+00
  0.0000000E+00  0.0000000E+00  0.4400000E+02  0.1784105E+02 -0.2615895E+02  0.8489855E+00  0.2436588E+00  0.1510145E+00  0.4334115E-01  0.0000000E+00
  0.0000000E+00  0.0000000E+00  0.4500000E+02  0.1888457E+02 -0.2611543E+02  0.8498362E+00  0.2439030E+00  0.1501638E+00  0.4309701E-01  0.0000000E+00
  0.0000000E+00  0.0000000E+00  0.4600000E+02  0.1992481E+02 -0.2607519E+02  0.8506210E+00  0.2441282E+00  0.1493790E+00  0.4287176E-01  0.0000000E+00
  0.0000000E+00  0.0000000E+00  0.4700000E+02  0.2096202E+02 -0.2603798E+02  0.8513453E+00  0.2443361E+00  0.1486547E+00  0.4266389E-01  0.0000000E+00
  0.0000000E+00  0.0000000E+00  0.4800000E+02  0.2199644E+02 -0.2600356E+02  0.8520139E+00  0.2445280E+00  0.1479861E+00  0.4247201E-01  0.0000000E+00
  0.0000000E+00  0.0000000E+00  0.4900000E+02  0.2302828E+02 -0.2597172E+02  0.8526312E+00  0.2447052E+00  0.1473688E+00  0.4229485E-01  0.0000000E+00
  0.0000000E+00  0.0000000E+00  0.5000000E+02  0.2405773E+02 -0.2594227E+02  0.8532012E+00  0.2448688E+00  0.1467988E+00  0.4213125E-01  0.0000000E+00
  0.0000000E+00  0.0000000E+00  0.5100000E+02  0.2508498E+02 -0.2591502E+02  0.8537277E+00  0.2450199E+00  0.1462723E+00  0.4198014E-01  0.0000000E+00
  0.0000000E+00  0.0000000E+00  0.5200000E+02  0.2611018E+02 -0.2588982E+02  0.8542140E+00  0.2451594E+00  0.1457860E+00  0.4184058E-01  0.0000000E+00
  0.0000000E+00  0.0000000E+00  0.5300000E+02  0.2713349E+02 -0.2586651E+02  0.8546632E+00  0.2452883E+00  0.1453368E+00  0.4171165E-01  0.0000000E+00
  0.0000000E+00  0.0000000E+00  0.5400000E+02  0.2815505E+02 -0.2584495E+02  0.8550782E+00  0.2454074E+00  0.1449218E+00  0.4159256E-01  0.0000000E+00
  0.0000000E+00  0.0000000E+00  0.5500000E+02  0.2917499E+02 -0.2582501E+02  0.8554615E+00  0.2455174E+00  0.1445385E+00  0.4148255E-01  0.0000000E+00
  0.0000000E+00  0.0000000E+00  0.5600000E+02  0.3019343E+02 -0.2580657E+02  0.8558156E+00  0.2456191E+00  0.1441844E+00  0.4138093E-01  0.0000000E+00
  0.0000000E+00  0.0000000E+00  0.5700000E+02  0.3121048E+02 -0.2578952E+02  0.8561426E+00  0.2457129E+00  0.1438574E+00  0.4128708E-01  0.0000000E+00
  0.0000000E+00  0.0000000E+00  0.5800000E+02  0.3222624E+02 -0.2577376E+02  0.8564446E+00  0.2457996E+00  0.1435554E+00  0.4120040E-01  0.0000000E+00
  0.0000000E+00  0.0000000E+00  0.5900000E+02  0.3324081E+02 -0.2575919E+02  0.8567235E+00  0.2458796E+00  0.1432765E+00  0.4112036E-01  0.0000000E+00
  0.0000000E+00  0.0000000E+00  0.6000000E+02  0.3425427E+02 -0.2574573E+02  0.8569809E+00  0.2459535E+00  0.1430191E+00  0.4104647E-01  0.0000000E+00
  0.0000000E+00  0.0000000E+00  0.6100000E+02  0.3526670E+02 -0.2573330E+02  0.8572186E+00  0.2460217E+00  0.1427814E+00  0.4097826E-01  0.0000000E+00
  0.0000000E+00  0.0000000E+00  0.6200000E+02  0.3627818E+02 -0.2572182E+02  0.8574379E+00  0.2460847E+00  0.1425621E+00  0.4091532E-01  0.0000000E+00
  0.0000000E+00  0.0000000E+00  0.6300000E+02  0.3728878E+02 -0.2571122E+02  0.8576402E+00  0.2461427E+00  0.1423598E+00  0.4085726E-01  0.0000000E+00
  0.0000000E+00  0.0000000E+00  0.6400000E+02  0.3829856E+02 -0.2570144E+02  0.8578268E+00  0.2461963E+00  0.1421732E+00  0.4080371E-01  0.0000000E+00
  0.0000000E+00  0.0000000E+00  0.6500000E+02  0.3930758E+02 -0.2569242E+02  0.8579988E+00  0.2462457E+00  0.1420012E+00  0.4075434E-01  0.0000000E+00
  0.0000000E+00  0.0000000E+00  0.6600000E+02  0.4031590E+02 -0.2568410E+02  0.8581574E+00  0.2462912E+00  0.1418426E+00  0.4070884E-01  0.0000000E+00
  0.0000000E+00  0.0000000E+00  0.6700000E+02  0.4132356E+02 -0.2567644E+02  0.8583034E+00  0.2463331E+00  0.1416966E+00  0.4066693E-01  0.0000000E+00
  0.0000000E+00  0.0000000E+00  0.6800000E+02  0.4233062E+02 -0.2566938E+02  0.8584379E+00  0.2463717E+00  0.1415621E+00  0.4062833E-01  0.0000000E+00
  0.0000000E+00  0.0000000E+00  0.6900000E+02  0.4333713E+02 -0.2566287E+02  0.8585616E+00  0.2464072E+00  0.1414384E+00  0.4059282E-01  0.0000000E+00
  0.0000000E+00  0.0000000E+00  0.7000000E+02  0.4434311E+02 -0.2565689E+02  0.8586754E+00  0.2464399E+00  0.1413246E+00  0.4056015E-01  0.0000000E+00
