title = "dataset haverk"
variables = "x", "y", "z", "h_w", "p_w", "s_w", "theta_a", "s_a", "theta_g"
zone t = "Flow variables, solution time =  2.000E-01 days        " i =   71, j =    1, k =    1,  f=point
  0.0000000E+00  0.0000000E+00  0.0000000E+00 -0.6150000E+02 -0.6150000E+02  0.3485631E+00  0.1000376E+00  0.6514369E+00  0.1869624E+00
  0.0000000E+00  0.0000000E+00  0.1000000E+01 -0.6050000E+02 -0.6150000E+02  0.3485631E+00  0.1000376E+00  0.6514369E+00  0.1869624E+00
  0.0000000E+00  0.0000000E+00  0.2000000E+01 -0.5950000E+02 -0.6150000E+02  0.3485631E+00  0.1000376E+00  0.6514369E+00  0.1869624E+00
  0.0000000E+00  0.0000000E+00  0.3000000E+01 -0.5850000E+02 -0.6150000E+02  0.3485631E+00  0.1000376E+00  0.6514369E+00  0.1869624E+00
  0.0000000E+00  0.0000000E+00  0.4000000E+01 -0.5750000E+02 -0.6150000E+02  0.3485631E+00  0.1000376E+00  0.6514369E+00  0.1869624E+00
  0.0000000E+00  0.0000000E+00  0.5000000E+01 -0.5650000E+02 -0.6150000E+02  0.3485631E+00  0.1000376E+00  0.6514369E+00  0.1869624E+00
  0.0000000E+00  0.0000000E+00  0.6000000E+01 -0.5550000E+02 -0.6150000E+02  0.3485631E+00  0.1000376E+00  0.6514369E+00  0.1869624E+00
  0.0000000E+00  0.0000000E+00  0.7000000E+01 -0.5450000E+02 -0.6150000E+02  0.3485631E+00  0.1000376E+00  0.6514369E+00  0.1869624E+00
  0.0000000E+00  0.0000000E+00  0.8000000E+01 -0.5350000E+02 -0.6150000E+02  0.3485631E+00  0.1000376E+00  0.6514369E+00  0.1869624E+00
  0.0000000E+00  0.0000000E+00  0.9000000E+01 -0.5250000E+02 -0.6150000E+02  0.3485631E+00  0.1000376E+00  0.6514369E+00  0.1869624E+00
  0.0000000E+00  0.0000000E+00  0.1000000E+02 -0.5150000E+02 -0.6150000E+02  0.3485631E+00  0.1000376E+00  0.6514369E+00  0.1869624E+00
  0.0000000E+00  0.0000000E+00  0.1100000E+02 -0.5050000E+02 -0.6150000E+02  0.3485631E+00  0.1000376E+00  0.6514369E+00  0.1869624E+00
  0.0000000E+00  0.0000000E+00  0.1200000E+02 -0.4950000E+02 -0.6150000E+02  0.3485631E+00  0.1000376E+00  0.6514369E+00  0.1869624E+00
  0.0000000E+00  0.0000000E+00  0.1300000E+02 -0.4850000E+02 -0.6150000E+02  0.3485631E+00  0.1000376E+00  0.6514369E+00  0.1869624E+00
  0.0000000E+00  0.0000000E+00  0.1400000E+02 -0.4750000E+02 -0.6150000E+02  0.3485631E+00  0.1000376E+00  0.6514369E+00  0.1869624E+00
  0.0000000E+00  0.0000000E+00  0.1500000E+02 -0.4650000E+02 -0.6150000E+02  0.3485631E+00  0.1000376E+00  0.6514369E+00  0.1869624E+00
  0.0000000E+00  0.0000000E+00  0.1600000E+02 -0.4550000E+02 -0.6150000E+02  0.3485631E+00  0.1000376E+00  0.6514369E+00  0.1869624E+00
  0.0000000E+00  0.0000000E+00  0.1700000E+02 -0.4450000E+02 -0.6150000E+02  0.3485631E+00  0.1000376E+00  0.6514369E+00  0.1869624E+00
  0.0000000E+00  0.0000000E+00  0.1800000E+02 -0.4350000E+02 -0.6150000E+02  0.3485631E+00  0.1000376E+00  0.6514369E+00  0.1869624E+00
  0.0000000E+00  0.0000000E+00  0.1900000E+02 -0.4250000E+02 -0.6150000E+02  0.3485631E+00  0.1000376E+00  0.6514369E+00  0.1869624E+00
  0.0000000E+00  0.0000000E+00  0.2000000E+02 -0.4150000E+02 -0.6150000E+02  0.3485631E+00  0.1000376E+00  0.6514369E+00  0.1869624E+00
  0.0000000E+00  0.0000000E+00  0.2100000E+02 -0.4050000E+02 -0.6150000E+02  0.3485631E+00  0.1000376E+00  0.6514369E+00  0.1869624E+00
  0.0000000E+00  0.0000000E+00  0.2200000E+02 -0.3950000E+02 -0.6150000E+02  0.3485631E+00  0.1000376E+00  0.6514369E+00  0.1869624E+00
  0.0000000E+00  0.0000000E+00  0.2300000E+02 -0.3850000E+02 -0.6150000E+02  0.3485631E+00  0.1000376E+00  0.6514369E+00  0.1869624E+00
  0.0000000E+00  0.0000000E+00  0.2400000E+02 -0.3750000E+02 -0.6150000E+02  0.3485631E+00  0.1000376E+00  0.6514369E+00  0.1869624E+00
  0.0000000E+00  0.0000000E+00  0.2500000E+02 -0.3650000E+02 -0.6150000E+02  0.3485631E+00  0.1000376E+00  0.6514369E+00  0.1869624E+00
  0.0000000E+00  0.0000000E+00  0.2600000E+02 -0.3550000E+02 -0.6150000E+02  0.3485631E+00  0.1000376E+00  0.6514369E+00  0.1869624E+00
  0.0000000E+00  0.0000000E+00  0.2700000E+02 -0.3450000E+02 -0.6150000E+02  0.3485631E+00  0.1000376E+00  0.6514369E+00  0.1869624E+00
  0.0000000E+00  0.0000000E+00  0.2800000E+02 -0.3350000E+02 -0.6150000E+02  0.3485631E+00  0.1000376E+00  0.6514369E+00  0.1869624E+00
  0.0000000E+00  0.0000000E+00  0.2900000E+02 -0.3250000E+02 -0.6150000E+02  0.3485631E+00  0.1000376E+00  0.6514369E+00  0.1869624E+00
  0.0000000E+00  0.0000000E+00  0.3000000E+02 -0.3150000E+02 -0.6150000E+02  0.3485631E+00  0.1000376E+00  0.6514369E+00  0.1869624E+00
  0.0000000E+00  0.0000000E+00  0.3100000E+02 -0.3050000E+02 -0.6150000E+02  0.3485631E+00  0.1000376E+00  0.6514369E+00  0.1869624E+00
  0.0000000E+00  0.0000000E+00  0.3200000E+02 -0.2950000E+02 -0.6150000E+02  0.3485631E+00  0.1000376E+00  0.6514369E+00  0.1869624E+00
  0.0000000E+00  0.0000000E+00  0.3300000E+02 -0.2850000E+02 -0.6150000E+02  0.3485631E+00  0.1000376E+00  0.6514369E+00  0.1869624E+00
  0.0000000E+00  0.0000000E+00  0.3400000E+02 -0.2750000E+02 -0.6150000E+02  0.3485631E+00  0.1000376E+00  0.6514369E+00  0.1869624E+00
  0.0000000E+00  0.0000000E+00  0.3500000E+02 -0.2649999E+02 -0.6149999E+02  0.3485631E+00  0.1000376E+00  0.6514369E+00  0.1869624E+00
  0.0000000E+00  0.0000000E+00  0.3600000E+02 -0.2549998E+02 -0.6149998E+02  0.3485631E+00  0.1000376E+00  0.6514369E+00  0.1869624E+00
  0.0000000E+00  0.0000000E+00  0.3700000E+02 -0.2449992E+02 -0.6149992E+02  0.3485634E+00  0.1000377E+00  0.6514366E+00  0.1869623E+00
  0.0000000E+00  0.0000000E+00  0.3800000E+02 -0.2349972E+02 -0.6149972E+02  0.3485643E+00  0.1000380E+00  0.6514357E+00  0.1869620E+00
  0.0000000E+00  0.0000000E+00  0.3900000E+02 -0.2249897E+02 -0.6149897E+02  0.3485677E+00  0.1000389E+00  0.6514323E+00  0.1869611E+00
  0.0000000E+00  0.0000000E+00  0.4000000E+02 -0.2149626E+02 -0.6149626E+02  0.3485800E+00  0.1000425E+00  0.6514200E+00  0.1869575E+00
  0.0000000E+00  0.0000000E+00  0.4100000E+02 -0.2048628E+02 -0.6148628E+02  0.3486253E+00  0.1000555E+00  0.6513747E+00  0.1869445E+00
  0.0000000E+00  0.0000000E+00  0.4200000E+02 -0.1944924E+02 -0.6144924E+02  0.3487936E+00  0.1001038E+00  0.6512064E+00  0.1868962E+00
  0.0000000E+00  0.0000000E+00  0.4300000E+02 -0.1831102E+02 -0.6131102E+02  0.3494252E+00  0.1002850E+00  0.6505748E+00  0.1867150E+00
  0.0000000E+00  0.0000000E+00  0.4400000E+02 -0.1681252E+02 -0.6081252E+02  0.3517497E+00  0.1009522E+00  0.6482503E+00  0.1860478E+00
  0.0000000E+00  0.0000000E+00  0.4500000E+02 -0.1429055E+02 -0.5929055E+02  0.3593234E+00  0.1031258E+00  0.6406766E+00  0.1838742E+00
  0.0000000E+00  0.0000000E+00  0.4600000E+02 -0.1011455E+02 -0.5611455E+02  0.3777497E+00  0.1084142E+00  0.6222503E+00  0.1785858E+00
  0.0000000E+00  0.0000000E+00  0.4700000E+02 -0.4896498E+01 -0.5189650E+02  0.4089899E+00  0.1173801E+00  0.5910101E+00  0.1696199E+00
  0.0000000E+00  0.0000000E+00  0.4800000E+02  0.2267574E+00 -0.4777324E+02  0.4491731E+00  0.1289127E+00  0.5508269E+00  0.1580873E+00
  0.0000000E+00  0.0000000E+00  0.4900000E+02  0.4734303E+01 -0.4426570E+02  0.4928002E+00  0.1414337E+00  0.5071998E+00  0.1455663E+00
  0.0000000E+00  0.0000000E+00  0.5000000E+02  0.8582543E+01 -0.4141746E+02  0.5356582E+00  0.1537339E+00  0.4643418E+00  0.1332661E+00
  0.0000000E+00  0.0000000E+00  0.5100000E+02  0.1187866E+02 -0.3912134E+02  0.5753536E+00  0.1651265E+00  0.4246464E+00  0.1218735E+00
  0.0000000E+00  0.0000000E+00  0.5200000E+02  0.1474351E+02 -0.3725649E+02  0.6108849E+00  0.1753240E+00  0.3891151E+00  0.1116760E+00
  0.0000000E+00  0.0000000E+00  0.5300000E+02  0.1727650E+02 -0.3572350E+02  0.6420858E+00  0.1842786E+00  0.3579142E+00  0.1027214E+00
  0.0000000E+00  0.0000000E+00  0.5400000E+02  0.1955285E+02 -0.3444715E+02  0.6692132E+00  0.1920642E+00  0.3307868E+00  0.9493582E-01
  0.0000000E+00  0.0000000E+00  0.5500000E+02  0.2162830E+02 -0.3337170E+02  0.6926979E+00  0.1988043E+00  0.3073021E+00  0.8819570E-01
  0.0000000E+00  0.0000000E+00  0.5600000E+02  0.2354420E+02 -0.3245580E+02  0.7130116E+00  0.2046343E+00  0.2869884E+00  0.8236567E-01
  0.0000000E+00  0.0000000E+00  0.5700000E+02  0.2533156E+02 -0.3166844E+02  0.7306036E+00  0.2096832E+00  0.2693964E+00  0.7731677E-01
  0.0000000E+00  0.0000000E+00  0.5800000E+02  0.2701394E+02 -0.3098606E+02  0.7458749E+00  0.2140661E+00  0.2541251E+00  0.7293391E-01
  0.0000000E+00  0.0000000E+00  0.5900000E+02  0.2860950E+02 -0.3039050E+02  0.7591718E+00  0.2178823E+00  0.2408282E+00  0.6911768E-01
  0.0000000E+00  0.0000000E+00  0.6000000E+02  0.3013243E+02 -0.2986757E+02  0.7707882E+00  0.2212162E+00  0.2292118E+00  0.6578377E-01
  0.0000000E+00  0.0000000E+00  0.6100000E+02  0.3159400E+02 -0.2940600E+02  0.7809710E+00  0.2241387E+00  0.2190290E+00  0.6286133E-01
  0.0000000E+00  0.0000000E+00  0.6200000E+02  0.3300324E+02 -0.2899676E+02  0.7899268E+00  0.2267090E+00  0.2100732E+00  0.6029102E-01
  0.0000000E+00  0.0000000E+00  0.6300000E+02  0.3436748E+02 -0.2863252E+02  0.7978286E+00  0.2289768E+00  0.2021714E+00  0.5802320E-01
  0.0000000E+00  0.0000000E+00  0.6400000E+02  0.3569277E+02 -0.2830723E+02  0.8048213E+00  0.2309837E+00  0.1951787E+00  0.5601628E-01
  0.0000000E+00  0.0000000E+00  0.6500000E+02  0.3698408E+02 -0.2801592E+02  0.8110268E+00  0.2327647E+00  0.1889732E+00  0.5423532E-01
  0.0000000E+00  0.0000000E+00  0.6600000E+02  0.3824561E+02 -0.2775439E+02  0.8165475E+00  0.2343491E+00  0.1834525E+00  0.5265088E-01
  0.0000000E+00  0.0000000E+00  0.6700000E+02  0.3948090E+02 -0.2751910E+02  0.8214702E+00  0.2357620E+00  0.1785298E+00  0.5123804E-01
  0.0000000E+00  0.0000000E+00  0.6800000E+02  0.4069293E+02 -0.2730707E+02  0.8258689E+00  0.2370244E+00  0.1741311E+00  0.4997563E-01
  0.0000000E+00  0.0000000E+00  0.6900000E+02  0.4188429E+02 -0.2711571E+02  0.8298063E+00  0.2381544E+00  0.1701937E+00  0.4884559E-01
  0.0000000E+00  0.0000000E+00  0.7000000E+02  0.4305720E+02 -0.2694280E+02  0.8333366E+00  0.2391676E+00  0.1666634E+00  0.4783241E-01
