title = "dataset surfa2"
variables = "pH","h+1","ha","=soh","oh-","a-"
zone t = "C_j, X_i, pH-sweep from 0-12", f=point
  0.0000000E+00  0.1000000E+01  0.9999900E-07  0.9999455E-08  0.1004616E-13  0.9999900E-12
  0.2400000E+00  0.5754399E+00  0.9999826E-07  0.1737577E-07  0.1745822E-13  0.1737771E-11
  0.4800000E+00  0.3311311E+00  0.9999698E-07  0.3019171E-07  0.3033891E-13  0.3019861E-11
  0.7200000E+00  0.1905461E+00  0.9999475E-07  0.5245538E-07  0.5272299E-13  0.5247799E-11
  0.9600000E+00  0.1096478E+00  0.9999088E-07  0.9112139E-07  0.9162205E-13  0.9119277E-11
  0.1200000E+01  0.6309573E-01  0.9998415E-07  0.1582434E-06  0.1592209E-12  0.1584642E-10
  0.1440000E+01  0.3630781E-01  0.9997247E-07  0.2746716E-06  0.2766942E-12  0.2753470E-10
  0.1680000E+01  0.2089296E-01  0.9995216E-07  0.4763496E-06  0.4808393E-12  0.4784011E-10
  0.1920000E+01  0.1202264E-01  0.9991689E-07  0.8248729E-06  0.8356030E-12  0.8310725E-10
  0.2160000E+01  0.6918310E-02  0.9985566E-07  0.1424708E-05  0.1452112E-11  0.1443353E-09
  0.2400000E+01  0.3981072E-02  0.9974944E-07  0.2449852E-05  0.2523481E-11  0.2505593E-09
  0.2640000E+01  0.2290868E-02  0.9956538E-07  0.4181035E-05  0.4385307E-11  0.4346187E-09
  0.2880000E+01  0.1318257E-02  0.9924713E-07  0.7046306E-05  0.7620790E-11  0.7528665E-09
  0.3120000E+01  0.7585776E-03  0.9869890E-07  0.1163434E-04  0.1324342E-10  0.1301105E-08
  0.3360000E+01  0.4365158E-03  0.9776044E-07  0.1860574E-04  0.2301442E-10  0.2239562E-08
  0.3600000E+01  0.2511886E-03  0.9617135E-07  0.2839825E-04  0.3999447E-10  0.3828650E-08
  0.3840000E+01  0.1445440E-03  0.9352935E-07  0.4073842E-04  0.6950243E-10  0.6470650E-08
  0.4080000E+01  0.8317638E-04  0.8926767E-07  0.5432961E-04  0.1207814E-09  0.1073233E-07
  0.4320000E+01  0.4786301E-04  0.8271780E-07  0.6725612E-04  0.2098940E-09  0.1728220E-07
  0.4560000E+01  0.2754229E-04  0.7336337E-07  0.7795837E-04  0.3647539E-09  0.2663663E-07
  0.4800000E+01  0.1584893E-04  0.6131368E-07  0.8586421E-04  0.6338697E-09  0.3868632E-07
  0.5040000E+01  0.9120108E-05  0.4769904E-07  0.9123841E-04  0.1101539E-08  0.5230096E-07
  0.5280000E+01  0.5248075E-05  0.3441795E-07  0.9469123E-04  0.1914256E-08  0.6558205E-07
  0.5520000E+01  0.3019952E-05  0.2319480E-07  0.9682397E-04  0.3326596E-08  0.7680520E-07
  0.5760000E+01  0.1737801E-05  0.1480517E-07  0.9809821E-04  0.5780960E-08  0.8519483E-07
  0.6000000E+01  0.1000000E-05  0.9090909E-08  0.9882770E-04  0.1004616E-07  0.9090909E-07
  0.6240000E+01  0.5754399E-06  0.5441286E-08  0.9920739E-04  0.1745822E-07  0.9455871E-07
  0.6480000E+01  0.3311311E-06  0.3205178E-08  0.9934384E-04  0.3033891E-07  0.9679482E-07
  0.6720000E+01  0.1905461E-06  0.1869832E-08  0.9927591E-04  0.5272299E-07  0.9813017E-07
  0.6960000E+01  0.1096478E-06  0.1084586E-08  0.9898265E-04  0.9162205E-07  0.9891541E-07
  0.7200000E+01  0.6309573E-07  0.6270012E-09  0.9837724E-04  0.1592209E-06  0.9937300E-07
  0.7440000E+01  0.3630781E-07  0.3617646E-09  0.9728632E-04  0.2766942E-06  0.9963824E-07
  0.7680000E+01  0.2089296E-07  0.2084940E-09  0.9541584E-04  0.4808393E-06  0.9979151E-07
  0.7920000E+01  0.1202264E-07  0.1200821E-09  0.9231409E-04  0.8356030E-06  0.9987992E-07
  0.8160000E+01  0.6918310E-08  0.6913527E-10  0.8736930E-04  0.1452112E-05  0.9993086E-07
  0.8400000E+01  0.3981072E-08  0.3979487E-10  0.7992492E-04  0.2523481E-05  0.9996021E-07
  0.8640000E+01  0.2290868E-08  0.2290343E-10  0.6961489E-04  0.4385307E-05  0.9997710E-07
  0.8880000E+01  0.1318257E-08  0.1318083E-10  0.5686631E-04  0.7620790E-05  0.9998682E-07
  0.9120000E+01  0.7585776E-09  0.7585200E-11  0.4313771E-04  0.1324342E-04  0.9999241E-07
  0.9360000E+01  0.4365158E-09  0.4364968E-11  0.3038849E-04  0.2301442E-04  0.9999564E-07
  0.9600000E+01  0.2511886E-09  0.2511823E-11  0.2007692E-04  0.3999447E-04  0.9999749E-07
  0.9840000E+01  0.1445440E-09  0.1445419E-11  0.1262954E-04  0.6950243E-04  0.9999855E-07
  0.1008000E+02  0.8317638E-10  0.8317569E-12  0.7679288E-05  0.1207814E-03  0.9999917E-07
  0.1032000E+02  0.4786301E-10  0.4786278E-12  0.4567890E-05  0.2098940E-03  0.9999952E-07
  0.1056000E+02  0.2754229E-10  0.2754221E-12  0.2680529E-05  0.3647539E-03  0.9999972E-07
  0.1080000E+02  0.1584893E-10  0.1584891E-12  0.1560239E-05  0.6338697E-03  0.9999984E-07
  0.1104000E+02  0.9120108E-11  0.9120100E-13  0.9038104E-06  0.1101539E-02  0.9999991E-07
  0.1128000E+02  0.5248075E-11  0.5248072E-13  0.5220919E-06  0.1914256E-02  0.9999995E-07
  0.1152000E+02  0.3019952E-11  0.3019951E-13  0.3010999E-06  0.3326596E-02  0.9999997E-07
  0.1176000E+02  0.1737801E-11  0.1737801E-13  0.1734867E-06  0.5780960E-02  0.9999998E-07
  0.1200000E+02  0.1000000E-11  0.9999999E-14  0.9990474E-07  0.1004616E-01  0.9999999E-07
