title = "dataset surfa2"
variables = "pH","=soh","=soh2+","=so-","=sa"
zone t = "S_i, pH-sweep from 0-12", f=point
  0.0000000E+00  0.9999455E-08  0.9999455E-04  0.9999455E-17  0.9999355E-10
  0.2400000E+00  0.1737577E-07  0.9998710E-04  0.3019562E-16  0.1737546E-09
  0.4800000E+00  0.3019171E-07  0.9997416E-04  0.9117751E-16  0.3019080E-09
  0.7200000E+00  0.5245538E-07  0.9995167E-04  0.2752898E-15  0.5245263E-09
  0.9600000E+00  0.9112139E-07  0.9991262E-04  0.8310370E-15  0.9111308E-09
  0.1200000E+01  0.1582434E-06  0.9984482E-04  0.2507989E-14  0.1582183E-08
  0.1440000E+01  0.2746716E-06  0.9972723E-04  0.7565084E-14  0.2745960E-08
  0.1680000E+01  0.4763496E-06  0.9952354E-04  0.2279953E-13  0.4761217E-08
  0.1920000E+01  0.8248729E-06  0.9917153E-04  0.6860994E-13  0.8241874E-08
  0.2160000E+01  0.1424708E-05  0.9856571E-04  0.2059330E-12  0.1422652E-07
  0.2400000E+01  0.2449852E-05  0.9753036E-04  0.6153750E-12  0.2443714E-07
  0.2640000E+01  0.4181035E-05  0.9578198E-04  0.1825088E-11  0.4162864E-07
  0.2880000E+01  0.7046306E-05  0.9288841E-04  0.5345170E-11  0.6993257E-07
  0.3120000E+01  0.1163434E-04  0.8825547E-04  0.1533704E-10  0.1148296E-06
  0.3360000E+01  0.1860574E-04  0.8121698E-04  0.4262328E-10  0.1818905E-06
  0.3600000E+01  0.2839825E-04  0.7133318E-04  0.1130555E-09  0.2731098E-06
  0.3840000E+01  0.4073842E-04  0.5888493E-04  0.2818410E-09  0.3810238E-06
  0.4080000E+01  0.5432961E-04  0.4518940E-04  0.6531856E-09  0.4849877E-06
  0.4320000E+01  0.6725612E-04  0.3219080E-04  0.1405179E-08  0.5563278E-06
  0.4560000E+01  0.7795837E-04  0.2147152E-04  0.2830497E-08  0.5719289E-06
  0.4800000E+01  0.8586421E-04  0.1360856E-04  0.5417665E-08  0.5264651E-06
  0.5040000E+01  0.9123841E-04  0.8321041E-05  0.1000409E-07  0.4351984E-06
  0.5280000E+01  0.9469123E-04  0.4969467E-05  0.1804304E-07  0.3259078E-06
  0.5520000E+01  0.9682397E-04  0.2924037E-05  0.3206143E-07  0.2245813E-06
  0.5760000E+01  0.9809821E-04  0.1704752E-05  0.5644963E-07  0.1452360E-06
  0.6000000E+01  0.9882770E-04  0.9882770E-06  0.9882770E-07  0.8984337E-07
  0.6240000E+01  0.9920739E-04  0.5708789E-06  0.1724027E-06  0.5398158E-07
  0.6480000E+01  0.9934384E-04  0.3289584E-06  0.3000136E-06  0.3184147E-07
  0.6720000E+01  0.9927591E-04  0.1891664E-06  0.5210074E-06  0.1856293E-07
  0.6960000E+01  0.9898265E-04  0.1085323E-06  0.9027325E-06  0.1073552E-07
  0.7200000E+01  0.9837724E-04  0.6207184E-07  0.1559174E-05  0.6168265E-08
  0.7440000E+01  0.9728632E-04  0.3532253E-07  0.2679488E-05  0.3519474E-08
  0.7680000E+01  0.9541584E-04  0.1993519E-07  0.4566889E-05  0.1989363E-08
  0.7920000E+01  0.9231409E-04  0.1109859E-07  0.7678352E-05  0.1108527E-08
  0.8160000E+01  0.8736930E-04  0.6044478E-08  0.1262871E-04  0.6040300E-09
  0.8400000E+01  0.7992492E-04  0.3181868E-08  0.2007623E-04  0.3180602E-09
  0.8640000E+01  0.6961489E-04  0.1594785E-08  0.3038800E-04  0.1594420E-09
  0.8880000E+01  0.5686631E-04  0.7496440E-09  0.4313751E-04  0.7495452E-10
  0.9120000E+01  0.4313771E-04  0.3272330E-09  0.5686658E-04  0.3272082E-10
  0.9360000E+01  0.3038849E-04  0.1326506E-09  0.6961601E-04  0.1326448E-10
  0.9600000E+01  0.2007692E-04  0.5043095E-10  0.7992767E-04  0.5042968E-11
  0.9840000E+01  0.1262954E-04  0.1825524E-10  0.8737509E-04  0.1825498E-11
  0.1008000E+02  0.7679288E-05  0.6387354E-11  0.9232535E-04  0.6387301E-12
  0.1032000E+02  0.4567890E-05  0.2186330E-11  0.9543676E-04  0.2186319E-12
  0.1056000E+02  0.2680529E-05  0.7382789E-12  0.9732412E-04  0.7382769E-13
  0.1080000E+02  0.1560239E-05  0.2472812E-12  0.9844441E-04  0.2472808E-13
  0.1104000E+02  0.9038104E-06  0.8242849E-13  0.9910084E-04  0.8242841E-14
  0.1128000E+02  0.5220919E-06  0.2739977E-13  0.9948256E-04  0.2739976E-14
  0.1152000E+02  0.3010999E-06  0.9093072E-14  0.9970355E-04  0.9093069E-15
  0.1176000E+02  0.1734867E-06  0.3014853E-14  0.9983116E-04  0.3014852E-15
  0.1200000E+02  0.9990474E-07  0.9990474E-15  0.9990474E-04  0.9990473E-16
