# Units: Log10 mol/kgw
 TITLE = " Years"
VARIABLES = "X (meters)", "H+        ", "Cl-       ", "Na+       ", "NO3-      ", "
 ZONE F=POINT,I=         100
 5.00000E-01              -5.99998E+00  -4.00000E+00  -4.00000E+00  -6.00000E+00
 1.50000E+00              -5.99998E+00  -4.00000E+00  -4.00000E+00  -6.00000E+00
 2.50000E+00              -5.99998E+00  -4.00000E+00  -4.00000E+00  -6.00000E+00
 3.50000E+00              -5.99997E+00  -4.00000E+00  -4.00000E+00  -6.00000E+00
 4.50000E+00              -5.99997E+00  -4.00000E+00  -4.00000E+00  -6.00000E+00
 5.50000E+00              -5.99997E+00  -4.00000E+00  -4.00000E+00  -6.00000E+00
 6.50000E+00              -5.99997E+00  -4.00000E+00  -4.00000E+00  -6.00000E+00
 7.50000E+00              -5.99997E+00  -4.00000E+00  -4.00000E+00  -6.00000E+00
 8.50000E+00              -5.99996E+00  -4.00000E+00  -4.00000E+00  -6.00000E+00
 9.50000E+00              -5.99996E+00  -4.00000E+00  -4.00000E+00  -6.00000E+00
 1.05000E+01              -5.99995E+00  -4.00000E+00  -4.00000E+00  -6.00000E+00
 1.15000E+01              -5.99994E+00  -4.00000E+00  -4.00000E+00  -6.00000E+00
 1.25000E+01              -5.99994E+00  -4.00000E+00  -4.00000E+00  -6.00000E+00
 1.35000E+01              -5.99993E+00  -4.00000E+00  -4.00000E+00  -6.00000E+00
 1.45000E+01              -5.99992E+00  -4.00000E+00  -4.00000E+00  -6.00000E+00
 1.55000E+01              -5.99990E+00  -4.00000E+00  -4.00000E+00  -6.00000E+00
 1.65000E+01              -5.99989E+00  -4.00000E+00  -4.00000E+00  -6.00000E+00
 1.75000E+01              -5.99987E+00  -4.00000E+00  -4.00000E+00  -6.00000E+00
 1.85000E+01              -5.99985E+00  -4.00000E+00  -4.00000E+00  -6.00000E+00
 1.95000E+01              -5.99982E+00  -4.00000E+00  -4.00000E+00  -6.00000E+00
 2.05000E+01              -5.99979E+00  -4.00000E+00  -4.00000E+00  -6.00000E+00
 2.15000E+01              -5.99976E+00  -4.00000E+00  -4.00000E+00  -6.00000E+00
 2.25000E+01              -5.99972E+00  -4.00000E+00  -4.00000E+00  -6.00000E+00
 2.35000E+01              -5.99967E+00  -4.00000E+00  -4.00000E+00  -6.00000E+00
 2.45000E+01              -5.99961E+00  -4.00000E+00  -4.00000E+00  -6.00000E+00
 2.55000E+01              -5.99954E+00  -4.00000E+00  -4.00000E+00  -6.00000E+00
 2.65000E+01              -5.99946E+00  -4.00000E+00  -4.00000E+00  -6.00000E+00
 2.75000E+01              -5.99937E+00  -4.00000E+00  -4.00000E+00  -6.00000E+00
 2.85000E+01              -5.99926E+00  -4.00000E+00  -4.00000E+00  -6.00000E+00
 2.95000E+01              -5.99913E+00  -3.99999E+00  -4.00000E+00  -5.99999E+00
 3.05000E+01              -5.99897E+00  -3.99999E+00  -4.00000E+00  -5.99999E+00
 3.15000E+01              -5.99879E+00  -3.99999E+00  -4.00000E+00  -5.99999E+00
 3.25000E+01              -5.99858E+00  -3.99999E+00  -4.00001E+00  -5.99999E+00
 3.35000E+01              -5.99833E+00  -3.99999E+00  -4.00001E+00  -5.99999E+00
 3.45000E+01              -5.99803E+00  -3.99999E+00  -4.00001E+00  -5.99999E+00
 3.55000E+01              -5.99768E+00  -3.99999E+00  -4.00001E+00  -5.99999E+00
 3.65000E+01              -5.99727E+00  -3.99998E+00  -4.00001E+00  -5.99998E+00
 3.75000E+01              -5.99678E+00  -3.99998E+00  -4.00001E+00  -5.99998E+00
 3.85000E+01              -5.99621E+00  -3.99998E+00  -4.00001E+00  -5.99998E+00
 3.95000E+01              -5.99554E+00  -3.99997E+00  -4.00002E+00  -5.99997E+00
 4.05000E+01              -5.99475E+00  -3.99997E+00  -4.00002E+00  -5.99997E+00
 4.15000E+01              -5.99382E+00  -3.99996E+00  -4.00002E+00  -5.99996E+00
 4.25000E+01              -5.99272E+00  -3.99995E+00  -4.00003E+00  -5.99996E+00
 4.35000E+01              -5.99144E+00  -3.99995E+00  -4.00003E+00  -5.99995E+00
 4.45000E+01              -5.98993E+00  -3.99994E+00  -4.00004E+00  -5.99994E+00
 4.55000E+01              -5.98816E+00  -3.99993E+00  -4.00004E+00  -5.99993E+00
 4.65000E+01              -5.98608E+00  -3.99991E+00  -4.00005E+00  -5.99992E+00
 4.75000E+01              -5.98365E+00  -3.99990E+00  -4.00006E+00  -5.99990E+00
 4.85000E+01              -5.98081E+00  -3.99988E+00  -4.00007E+00  -5.99989E+00
 4.95000E+01              -5.97750E+00  -3.99986E+00  -4.00009E+00  -5.99987E+00
 5.05000E+01              -5.97363E+00  -3.99983E+00  -4.00010E+00  -5.99984E+00
 5.15000E+01              -5.96913E+00  -3.99980E+00  -4.00012E+00  -5.99981E+00
 5.25000E+01              -5.96391E+00  -3.99977E+00  -4.00014E+00  -5.99978E+00
 5.35000E+01              -5.95786E+00  -3.99972E+00  -4.00016E+00  -5.99974E+00
 5.45000E+01              -5.95086E+00  -3.99968E+00  -4.00019E+00  -5.99969E+00
 5.55000E+01              -5.94280E+00  -3.99962E+00  -4.00023E+00  -5.99963E+00
 5.65000E+01              -5.93354E+00  -3.99955E+00  -4.00027E+00  -5.99956E+00
 5.75000E+01              -5.92293E+00  -3.99947E+00  -4.00031E+00  -5.99948E+00
 5.85000E+01              -5.91083E+00  -3.99938E+00  -4.00037E+00  -5.99937E+00
 5.95000E+01              -5.89709E+00  -3.99928E+00  -4.00043E+00  -5.99924E+00
 6.05000E+01              -5.88156E+00  -3.99915E+00  -4.00050E+00  -5.99908E+00
 6.15000E+01              -5.86408E+00  -3.99901E+00  -4.00059E+00  -5.99889E+00
 6.25000E+01              -5.84452E+00  -3.99883E+00  -4.00069E+00  -5.99863E+00
 6.35000E+01              -5.82276E+00  -3.99864E+00  -4.00081E+00  -5.99831E+00
 6.45000E+01              -5.79868E+00  -3.99840E+00  -4.00094E+00  -5.99789E+00
 6.55000E+01              -5.77221E+00  -3.99813E+00  -4.00110E+00  -5.99734E+00
 6.65000E+01              -5.74328E+00  -3.99782E+00  -4.00128E+00  -5.99661E+00
 6.75000E+01              -5.71188E+00  -3.99745E+00  -4.00149E+00  -5.99563E+00
 6.85000E+01              -5.67800E+00  -3.99703E+00  -4.00174E+00  -5.99430E+00
 6.95000E+01              -5.64168E+00  -3.99654E+00  -4.00202E+00  -5.99248E+00
 7.05000E+01              -5.60299E+00  -3.99597E+00  -4.00235E+00  -5.98997E+00
 7.15000E+01              -5.56202E+00  -3.99532E+00  -4.00273E+00  -5.98650E+00
 7.25000E+01              -5.51888E+00  -3.99456E+00  -4.00316E+00  -5.98168E+00
 7.35000E+01              -5.47370E+00  -3.99369E+00  -4.00365E+00  -5.97499E+00
 7.45000E+01              -5.42663E+00  -3.99270E+00  -4.00422E+00  -5.96573E+00
 7.55000E+01              -5.37781E+00  -3.99157E+00  -4.00487E+00  -5.95298E+00
 7.65000E+01              -5.32739E+00  -3.99028E+00  -4.00560E+00  -5.93559E+00
 7.75000E+01              -5.27552E+00  -3.98882E+00  -4.00643E+00  -5.91217E+00
 7.85000E+01              -5.22233E+00  -3.98718E+00  -4.00737E+00  -5.88117E+00
 7.95000E+01              -5.16796E+00  -3.98536E+00  -4.00842E+00  -5.84103E+00
 8.05000E+01              -5.11253E+00  -3.98334E+00  -4.00960E+00  -5.79040E+00
 8.15000E+01              -5.05615E+00  -3.98114E+00  -4.01090E+00  -5.72840E+00
 8.25000E+01              -4.99892E+00  -3.97877E+00  -4.01234E+00  -5.65483E+00
 8.35000E+01              -4.94092E+00  -3.97626E+00  -4.01389E+00  -5.57031E+00
 8.45000E+01              -4.88225E+00  -3.97366E+00  -4.01556E+00  -5.47615E+00
 8.55000E+01              -4.82297E+00  -3.97104E+00  -4.01733E+00  -5.37415E+00
 8.65000E+01              -4.76318E+00  -3.96851E+00  -4.01916E+00  -5.26637E+00
 8.75000E+01              -4.70295E+00  -3.96618E+00  -4.02099E+00  -5.15486E+00
 8.85000E+01              -4.64239E+00  -3.96420E+00  -4.02275E+00  -5.04153E+00
 8.95000E+01              -4.58164E+00  -3.96277E+00  -4.02434E+00  -4.92808E+00
 9.05000E+01              -4.52084E+00  -3.96205E+00  -4.02564E+00  -4.81595E+00
 9.15000E+01              -4.46021E+00  -3.96225E+00  -4.02648E+00  -4.70640E+00
 9.25000E+01              -4.40000E+00  -3.96353E+00  -4.02669E+00  -4.60049E+00
 9.35000E+01              -4.34051E+00  -3.96599E+00  -4.02606E+00  -4.49914E+00
 9.45000E+01              -4.28212E+00  -3.96967E+00  -4.02444E+00  -4.40318E+00
 9.55000E+01              -4.22525E+00  -3.97446E+00  -4.02170E+00  -4.31334E+00
 9.65000E+01              -4.17033E+00  -3.98012E+00  -4.01784E+00  -4.23027E+00
 9.75000E+01              -4.11783E+00  -3.98624E+00  -4.01305E+00  -4.15455E+00
 9.85000E+01              -4.06820E+00  -3.99230E+00  -4.00771E+00  -4.08662E+00
 9.95000E+01              -4.02182E+00  -3.99771E+00  -4.00242E+00  -4.02679E+00
