# Units: Log10 mol/kgw
 TITLE = " Years"
VARIABLES = "X (meters)", "H+        ", "Cl-       ", "Na+       ", "NO3-      ", "
 ZONE F=POINT,I=         100
 5.00000E-01              -5.43239E+00  -3.99272E+00  -4.00427E+00  -5.98909E+00
 1.50000E+00              -5.43186E+00  -3.99271E+00  -4.00428E+00  -5.98904E+00
 2.50000E+00              -5.43079E+00  -3.99268E+00  -4.00429E+00  -5.98893E+00
 3.50000E+00              -5.42920E+00  -3.99265E+00  -4.00431E+00  -5.98877E+00
 4.50000E+00              -5.42708E+00  -3.99260E+00  -4.00434E+00  -5.98855E+00
 5.50000E+00              -5.42443E+00  -3.99254E+00  -4.00437E+00  -5.98827E+00
 6.50000E+00              -5.42126E+00  -3.99246E+00  -4.00442E+00  -5.98793E+00
 7.50000E+00              -5.41758E+00  -3.99238E+00  -4.00447E+00  -5.98753E+00
 8.50000E+00              -5.41338E+00  -3.99228E+00  -4.00452E+00  -5.98705E+00
 9.50000E+00              -5.40868E+00  -3.99216E+00  -4.00458E+00  -5.98649E+00
 1.05000E+01              -5.40348E+00  -3.99204E+00  -4.00465E+00  -5.98585E+00
 1.15000E+01              -5.39778E+00  -3.99190E+00  -4.00473E+00  -5.98512E+00
 1.25000E+01              -5.39161E+00  -3.99175E+00  -4.00482E+00  -5.98429E+00
 1.35000E+01              -5.38495E+00  -3.99158E+00  -4.00491E+00  -5.98336E+00
 1.45000E+01              -5.37782E+00  -3.99140E+00  -4.00501E+00  -5.98230E+00
 1.55000E+01              -5.37024E+00  -3.99120E+00  -4.00512E+00  -5.98111E+00
 1.65000E+01              -5.36220E+00  -3.99099E+00  -4.00524E+00  -5.97977E+00
 1.75000E+01              -5.35372E+00  -3.99077E+00  -4.00537E+00  -5.97827E+00
 1.85000E+01              -5.34481E+00  -3.99053E+00  -4.00551E+00  -5.97659E+00
 1.95000E+01              -5.33548E+00  -3.99027E+00  -4.00565E+00  -5.97471E+00
 2.05000E+01              -5.32574E+00  -3.98999E+00  -4.00580E+00  -5.97261E+00
 2.15000E+01              -5.31560E+00  -3.98970E+00  -4.00597E+00  -5.97026E+00
 2.25000E+01              -5.30506E+00  -3.98939E+00  -4.00614E+00  -5.96764E+00
 2.35000E+01              -5.29415E+00  -3.98907E+00  -4.00632E+00  -5.96473E+00
 2.45000E+01              -5.28286E+00  -3.98872E+00  -4.00652E+00  -5.96147E+00
 2.55000E+01              -5.27122E+00  -3.98836E+00  -4.00672E+00  -5.95785E+00
 2.65000E+01              -5.25923E+00  -3.98797E+00  -4.00694E+00  -5.95383E+00
 2.75000E+01              -5.24690E+00  -3.98757E+00  -4.00716E+00  -5.94935E+00
 2.85000E+01              -5.23424E+00  -3.98714E+00  -4.00740E+00  -5.94438E+00
 2.95000E+01              -5.22126E+00  -3.98670E+00  -4.00765E+00  -5.93887E+00
 3.05000E+01              -5.20798E+00  -3.98623E+00  -4.00791E+00  -5.93277E+00
 3.15000E+01              -5.19440E+00  -3.98574E+00  -4.00819E+00  -5.92602E+00
 3.25000E+01              -5.18053E+00  -3.98523E+00  -4.00848E+00  -5.91857E+00
 3.35000E+01              -5.16638E+00  -3.98469E+00  -4.00878E+00  -5.91035E+00
 3.45000E+01              -5.15196E+00  -3.98414E+00  -4.00909E+00  -5.90132E+00
 3.55000E+01              -5.13728E+00  -3.98355E+00  -4.00942E+00  -5.89139E+00
 3.65000E+01              -5.12235E+00  -3.98295E+00  -4.00977E+00  -5.88052E+00
 3.75000E+01              -5.10718E+00  -3.98232E+00  -4.01012E+00  -5.86864E+00
 3.85000E+01              -5.09178E+00  -3.98166E+00  -4.01050E+00  -5.85569E+00
 3.95000E+01              -5.07615E+00  -3.98098E+00  -4.01088E+00  -5.84161E+00
 4.05000E+01              -5.06030E+00  -3.98028E+00  -4.01129E+00  -5.82635E+00
 4.15000E+01              -5.04425E+00  -3.97955E+00  -4.01171E+00  -5.80985E+00
 4.25000E+01              -5.02799E+00  -3.97879E+00  -4.01214E+00  -5.79209E+00
 4.35000E+01              -5.01153E+00  -3.97801E+00  -4.01260E+00  -5.77302E+00
 4.45000E+01              -4.99489E+00  -3.97721E+00  -4.01306E+00  -5.75261E+00
 4.55000E+01              -4.97807E+00  -3.97639E+00  -4.01355E+00  -5.73086E+00
 4.65000E+01              -4.96107E+00  -3.97554E+00  -4.01405E+00  -5.70776E+00
 4.75000E+01              -4.94390E+00  -3.97467E+00  -4.01457E+00  -5.68330E+00
 4.85000E+01              -4.92658E+00  -3.97378E+00  -4.01511E+00  -5.65752E+00
 4.95000E+01              -4.90909E+00  -3.97287E+00  -4.01566E+00  -5.63042E+00
 5.05000E+01              -4.89146E+00  -3.97195E+00  -4.01623E+00  -5.60206E+00
 5.15000E+01              -4.87368E+00  -3.97101E+00  -4.01681E+00  -5.57248E+00
 5.25000E+01              -4.85577E+00  -3.97006E+00  -4.01741E+00  -5.54173E+00
 5.35000E+01              -4.83772E+00  -3.96910E+00  -4.01802E+00  -5.50988E+00
 5.45000E+01              -4.81954E+00  -3.96813E+00  -4.01865E+00  -5.47700E+00
 5.55000E+01              -4.80124E+00  -3.96716E+00  -4.01929E+00  -5.44315E+00
 5.65000E+01              -4.78283E+00  -3.96619E+00  -4.01994E+00  -5.40842E+00
 5.75000E+01              -4.76430E+00  -3.96523E+00  -4.02060E+00  -5.37290E+00
 5.85000E+01              -4.74567E+00  -3.96427E+00  -4.02127E+00  -5.33666E+00
 5.95000E+01              -4.72694E+00  -3.96333E+00  -4.02195E+00  -5.29979E+00
 6.05000E+01              -4.70811E+00  -3.96241E+00  -4.02263E+00  -5.26236E+00
 6.15000E+01              -4.68920E+00  -3.96152E+00  -4.02332E+00  -5.22448E+00
 6.25000E+01              -4.67020E+00  -3.96066E+00  -4.02400E+00  -5.18620E+00
 6.35000E+01              -4.65112E+00  -3.95984E+00  -4.02468E+00  -5.14762E+00
 6.45000E+01              -4.63198E+00  -3.95907E+00  -4.02535E+00  -5.10881E+00
 6.55000E+01              -4.61277E+00  -3.95835E+00  -4.02601E+00  -5.06984E+00
 6.65000E+01              -4.59351E+00  -3.95770E+00  -4.02665E+00  -5.03079E+00
 6.75000E+01              -4.57420E+00  -3.95712E+00  -4.02727E+00  -4.99171E+00
 6.85000E+01              -4.55484E+00  -3.95661E+00  -4.02786E+00  -4.95268E+00
 6.95000E+01              -4.53546E+00  -3.95620E+00  -4.02842E+00  -4.91375E+00
 7.05000E+01              -4.51605E+00  -3.95588E+00  -4.02894E+00  -4.87499E+00
 7.15000E+01              -4.49663E+00  -3.95567E+00  -4.02942E+00  -4.83645E+00
 7.25000E+01              -4.47720E+00  -3.95557E+00  -4.02984E+00  -4.79818E+00
 7.35000E+01              -4.45779E+00  -3.95560E+00  -4.03020E+00  -4.76023E+00
 7.45000E+01              -4.43839E+00  -3.95576E+00  -4.03049E+00  -4.72265E+00
 7.55000E+01              -4.41903E+00  -3.95605E+00  -4.03070E+00  -4.68549E+00
 7.65000E+01              -4.39971E+00  -3.95650E+00  -4.03083E+00  -4.64879E+00
 7.75000E+01              -4.38045E+00  -3.95709E+00  -4.03085E+00  -4.61259E+00
 7.85000E+01              -4.36126E+00  -3.95784E+00  -4.03077E+00  -4.57694E+00
 7.95000E+01              -4.34217E+00  -3.95874E+00  -4.03058E+00  -4.54187E+00
 8.05000E+01              -4.32317E+00  -3.95981E+00  -4.03026E+00  -4.50742E+00
 8.15000E+01              -4.30431E+00  -3.96104E+00  -4.02982E+00  -4.47362E+00
 8.25000E+01              -4.28558E+00  -3.96243E+00  -4.02923E+00  -4.44051E+00
 8.35000E+01              -4.26701E+00  -3.96398E+00  -4.02850E+00  -4.40812E+00
 8.45000E+01              -4.24861E+00  -3.96567E+00  -4.02763E+00  -4.37648E+00
 8.55000E+01              -4.23042E+00  -3.96751E+00  -4.02660E+00  -4.34563E+00
 8.65000E+01              -4.21243E+00  -3.96948E+00  -4.02542E+00  -4.31559E+00
 8.75000E+01              -4.19468E+00  -3.97158E+00  -4.02409E+00  -4.28639E+00
 8.85000E+01              -4.17719E+00  -3.97377E+00  -4.02261E+00  -4.25805E+00
 8.95000E+01              -4.15997E+00  -3.97606E+00  -4.02099E+00  -4.23060E+00
 9.05000E+01              -4.14304E+00  -3.97842E+00  -4.01925E+00  -4.20407E+00
 9.15000E+01              -4.12642E+00  -3.98082E+00  -4.01739E+00  -4.17846E+00
 9.25000E+01              -4.11012E+00  -3.98325E+00  -4.01544E+00  -4.15380E+00
 9.35000E+01              -4.09418E+00  -3.98569E+00  -4.01340E+00  -4.13010E+00
 9.45000E+01              -4.07859E+00  -3.98810E+00  -4.01132E+00  -4.10737E+00
 9.55000E+01              -4.06339E+00  -3.99047E+00  -4.00920E+00  -4.08562E+00
 9.65000E+01              -4.04857E+00  -3.99277E+00  -4.00707E+00  -4.06487E+00
 9.75000E+01              -4.03416E+00  -3.99499E+00  -4.00497E+00  -4.04510E+00
 9.85000E+01              -4.02017E+00  -3.99709E+00  -4.00292E+00  -4.02632E+00
 9.95000E+01              -4.00660E+00  -3.99907E+00  -4.00095E+00  -4.00852E+00
