# Units: Log10 mol/kgw
 TITLE = " Years"
VARIABLES = "X (meters)", "H+        ", "Cl-       ", "Na+       ", "NO3-      ", "
 ZONE F=POINT,I=         100
 5.00000E-01              -5.25998E+00  -3.98789E+00  -4.00708E+00  -5.97809E+00
 1.50000E+00              -5.25949E+00  -3.98787E+00  -4.00709E+00  -5.97798E+00
 2.50000E+00              -5.25850E+00  -3.98784E+00  -4.00710E+00  -5.97775E+00
 3.50000E+00              -5.25702E+00  -3.98779E+00  -4.00713E+00  -5.97741E+00
 4.50000E+00              -5.25506E+00  -3.98773E+00  -4.00717E+00  -5.97694E+00
 5.50000E+00              -5.25260E+00  -3.98764E+00  -4.00722E+00  -5.97635E+00
 6.50000E+00              -5.24967E+00  -3.98754E+00  -4.00727E+00  -5.97563E+00
 7.50000E+00              -5.24626E+00  -3.98743E+00  -4.00734E+00  -5.97477E+00
 8.50000E+00              -5.24237E+00  -3.98729E+00  -4.00741E+00  -5.97375E+00
 9.50000E+00              -5.23802E+00  -3.98714E+00  -4.00749E+00  -5.97258E+00
 1.05000E+01              -5.23321E+00  -3.98697E+00  -4.00759E+00  -5.97124E+00
 1.15000E+01              -5.22795E+00  -3.98679E+00  -4.00769E+00  -5.96972E+00
 1.25000E+01              -5.22224E+00  -3.98658E+00  -4.00780E+00  -5.96799E+00
 1.35000E+01              -5.21610E+00  -3.98636E+00  -4.00793E+00  -5.96604E+00
 1.45000E+01              -5.20953E+00  -3.98612E+00  -4.00806E+00  -5.96386E+00
 1.55000E+01              -5.20254E+00  -3.98586E+00  -4.00820E+00  -5.96141E+00
 1.65000E+01              -5.19514E+00  -3.98559E+00  -4.00836E+00  -5.95868E+00
 1.75000E+01              -5.18734E+00  -3.98529E+00  -4.00852E+00  -5.95565E+00
 1.85000E+01              -5.17916E+00  -3.98497E+00  -4.00870E+00  -5.95227E+00
 1.95000E+01              -5.17059E+00  -3.98464E+00  -4.00889E+00  -5.94852E+00
 2.05000E+01              -5.16165E+00  -3.98428E+00  -4.00909E+00  -5.94437E+00
 2.15000E+01              -5.15235E+00  -3.98391E+00  -4.00929E+00  -5.93977E+00
 2.25000E+01              -5.14271E+00  -3.98351E+00  -4.00952E+00  -5.93470E+00
 2.35000E+01              -5.13272E+00  -3.98309E+00  -4.00975E+00  -5.92911E+00
 2.45000E+01              -5.12241E+00  -3.98265E+00  -4.00999E+00  -5.92295E+00
 2.55000E+01              -5.11178E+00  -3.98219E+00  -4.01025E+00  -5.91618E+00
 2.65000E+01              -5.10084E+00  -3.98171E+00  -4.01052E+00  -5.90876E+00
 2.75000E+01              -5.08960E+00  -3.98121E+00  -4.01080E+00  -5.90063E+00
 2.85000E+01              -5.07808E+00  -3.98068E+00  -4.01110E+00  -5.89174E+00
 2.95000E+01              -5.06628E+00  -3.98014E+00  -4.01141E+00  -5.88205E+00
 3.05000E+01              -5.05421E+00  -3.97957E+00  -4.01173E+00  -5.87149E+00
 3.15000E+01              -5.04188E+00  -3.97897E+00  -4.01207E+00  -5.86004E+00
 3.25000E+01              -5.02930E+00  -3.97836E+00  -4.01241E+00  -5.84763E+00
 3.35000E+01              -5.01649E+00  -3.97772E+00  -4.01278E+00  -5.83421E+00
 3.45000E+01              -5.00344E+00  -3.97706E+00  -4.01315E+00  -5.81976E+00
 3.55000E+01              -4.99016E+00  -3.97638E+00  -4.01355E+00  -5.80424E+00
 3.65000E+01              -4.97668E+00  -3.97568E+00  -4.01395E+00  -5.78760E+00
 3.75000E+01              -4.96298E+00  -3.97496E+00  -4.01437E+00  -5.76983E+00
 3.85000E+01              -4.94909E+00  -3.97421E+00  -4.01481E+00  -5.75091E+00
 3.95000E+01              -4.93501E+00  -3.97345E+00  -4.01525E+00  -5.73082E+00
 4.05000E+01              -4.92074E+00  -3.97267E+00  -4.01572E+00  -5.70956E+00
 4.15000E+01              -4.90630E+00  -3.97187E+00  -4.01619E+00  -5.68714E+00
 4.25000E+01              -4.89168E+00  -3.97105E+00  -4.01669E+00  -5.66357E+00
 4.35000E+01              -4.87691E+00  -3.97022E+00  -4.01719E+00  -5.63888E+00
 4.45000E+01              -4.86198E+00  -3.96937E+00  -4.01771E+00  -5.61308E+00
 4.55000E+01              -4.84690E+00  -3.96851E+00  -4.01824E+00  -5.58623E+00
 4.65000E+01              -4.83168E+00  -3.96764E+00  -4.01879E+00  -5.55836E+00
 4.75000E+01              -4.81632E+00  -3.96676E+00  -4.01934E+00  -5.52952E+00
 4.85000E+01              -4.80083E+00  -3.96588E+00  -4.01991E+00  -5.49977E+00
 4.95000E+01              -4.78521E+00  -3.96500E+00  -4.02049E+00  -5.46916E+00
 5.05000E+01              -4.76947E+00  -3.96411E+00  -4.02108E+00  -5.43777E+00
 5.15000E+01              -4.75362E+00  -3.96323E+00  -4.02168E+00  -5.40566E+00
 5.25000E+01              -4.73767E+00  -3.96235E+00  -4.02229E+00  -5.37289E+00
 5.35000E+01              -4.72161E+00  -3.96149E+00  -4.02290E+00  -5.33953E+00
 5.45000E+01              -4.70545E+00  -3.96064E+00  -4.02352E+00  -5.30566E+00
 5.55000E+01              -4.68920E+00  -3.95981E+00  -4.02414E+00  -5.27134E+00
 5.65000E+01              -4.67287E+00  -3.95901E+00  -4.02476E+00  -5.23664E+00
 5.75000E+01              -4.65645E+00  -3.95823E+00  -4.02538E+00  -5.20162E+00
 5.85000E+01              -4.63996E+00  -3.95749E+00  -4.02599E+00  -5.16635E+00
 5.95000E+01              -4.62340E+00  -3.95679E+00  -4.02660E+00  -5.13089E+00
 6.05000E+01              -4.60678E+00  -3.95613E+00  -4.02720E+00  -5.09530E+00
 6.15000E+01              -4.59011E+00  -3.95553E+00  -4.02779E+00  -5.05964E+00
 6.25000E+01              -4.57338E+00  -3.95498E+00  -4.02836E+00  -5.02397E+00
 6.35000E+01              -4.55661E+00  -3.95450E+00  -4.02891E+00  -4.98832E+00
 6.45000E+01              -4.53981E+00  -3.95409E+00  -4.02944E+00  -4.95277E+00
 6.55000E+01              -4.52297E+00  -3.95375E+00  -4.02993E+00  -4.91735E+00
 6.65000E+01              -4.50611E+00  -3.95350E+00  -4.03040E+00  -4.88210E+00
 6.75000E+01              -4.48924E+00  -3.95333E+00  -4.03082E+00  -4.84707E+00
 6.85000E+01              -4.47237E+00  -3.95326E+00  -4.03120E+00  -4.81231E+00
 6.95000E+01              -4.45549E+00  -3.95329E+00  -4.03153E+00  -4.77784E+00
 7.05000E+01              -4.43863E+00  -3.95343E+00  -4.03180E+00  -4.74371E+00
 7.15000E+01              -4.42179E+00  -3.95368E+00  -4.03202E+00  -4.70995E+00
 7.25000E+01              -4.40498E+00  -3.95405E+00  -4.03216E+00  -4.67658E+00
 7.35000E+01              -4.38821E+00  -3.95453E+00  -4.03223E+00  -4.64365E+00
 7.45000E+01              -4.37149E+00  -3.95514E+00  -4.03222E+00  -4.61118E+00
 7.55000E+01              -4.35483E+00  -3.95588E+00  -4.03212E+00  -4.57920E+00
 7.65000E+01              -4.33825E+00  -3.95674E+00  -4.03193E+00  -4.54773E+00
 7.75000E+01              -4.32175E+00  -3.95773E+00  -4.03164E+00  -4.51681E+00
 7.85000E+01              -4.30535E+00  -3.95885E+00  -4.03125E+00  -4.48644E+00
 7.95000E+01              -4.28906E+00  -3.96010E+00  -4.03074E+00  -4.45666E+00
 8.05000E+01              -4.27289E+00  -3.96147E+00  -4.03013E+00  -4.42748E+00
 8.15000E+01              -4.25686E+00  -3.96297E+00  -4.02939E+00  -4.39893E+00
 8.25000E+01              -4.24097E+00  -3.96458E+00  -4.02854E+00  -4.37103E+00
 8.35000E+01              -4.22525E+00  -3.96630E+00  -4.02757E+00  -4.34379E+00
 8.45000E+01              -4.20970E+00  -3.96811E+00  -4.02648E+00  -4.31722E+00
 8.55000E+01              -4.19434E+00  -3.97003E+00  -4.02527E+00  -4.29135E+00
 8.65000E+01              -4.17917E+00  -3.97202E+00  -4.02394E+00  -4.26619E+00
 8.75000E+01              -4.16423E+00  -3.97408E+00  -4.02251E+00  -4.24174E+00
 8.85000E+01              -4.14950E+00  -3.97620E+00  -4.02097E+00  -4.21803E+00
 8.95000E+01              -4.13502E+00  -3.97837E+00  -4.01934E+00  -4.19506E+00
 9.05000E+01              -4.12079E+00  -3.98057E+00  -4.01762E+00  -4.17284E+00
 9.15000E+01              -4.10682E+00  -3.98278E+00  -4.01584E+00  -4.15138E+00
 9.25000E+01              -4.09312E+00  -3.98498E+00  -4.01399E+00  -4.13069E+00
 9.35000E+01              -4.07970E+00  -3.98718E+00  -4.01210E+00  -4.11076E+00
 9.45000E+01              -4.06657E+00  -3.98934E+00  -4.01019E+00  -4.09161E+00
 9.55000E+01              -4.05375E+00  -3.99145E+00  -4.00827E+00  -4.07322E+00
 9.65000E+01              -4.04124E+00  -3.99350E+00  -4.00636E+00  -4.05561E+00
 9.75000E+01              -4.02904E+00  -3.99548E+00  -4.00448E+00  -4.03877E+00
 9.85000E+01              -4.01717E+00  -3.99736E+00  -4.00264E+00  -4.02269E+00
 9.95000E+01              -4.00563E+00  -3.99915E+00  -4.00086E+00  -4.00736E+00
