 TITLE = " Years"
 VARIABLES = "X (meters)", "pH "
 ZONE F=POINT,I=         100
 5.00000E-01               5.99998E+00
 1.50000E+00               5.99998E+00
 2.50000E+00               5.99998E+00
 3.50000E+00               5.99997E+00
 4.50000E+00               5.99997E+00
 5.50000E+00               5.99997E+00
 6.50000E+00               5.99997E+00
 7.50000E+00               5.99997E+00
 8.50000E+00               5.99996E+00
 9.50000E+00               5.99996E+00
 1.05000E+01               5.99995E+00
 1.15000E+01               5.99994E+00
 1.25000E+01               5.99994E+00
 1.35000E+01               5.99993E+00
 1.45000E+01               5.99992E+00
 1.55000E+01               5.99990E+00
 1.65000E+01               5.99989E+00
 1.75000E+01               5.99987E+00
 1.85000E+01               5.99985E+00
 1.95000E+01               5.99982E+00
 2.05000E+01               5.99979E+00
 2.15000E+01               5.99976E+00
 2.25000E+01               5.99972E+00
 2.35000E+01               5.99967E+00
 2.45000E+01               5.99961E+00
 2.55000E+01               5.99954E+00
 2.65000E+01               5.99946E+00
 2.75000E+01               5.99937E+00
 2.85000E+01               5.99926E+00
 2.95000E+01               5.99913E+00
 3.05000E+01               5.99897E+00
 3.15000E+01               5.99879E+00
 3.25000E+01               5.99858E+00
 3.35000E+01               5.99833E+00
 3.45000E+01               5.99803E+00
 3.55000E+01               5.99768E+00
 3.65000E+01               5.99727E+00
 3.75000E+01               5.99678E+00
 3.85000E+01               5.99621E+00
 3.95000E+01               5.99554E+00
 4.05000E+01               5.99475E+00
 4.15000E+01               5.99382E+00
 4.25000E+01               5.99272E+00
 4.35000E+01               5.99144E+00
 4.45000E+01               5.98993E+00
 4.55000E+01               5.98816E+00
 4.65000E+01               5.98608E+00
 4.75000E+01               5.98365E+00
 4.85000E+01               5.98081E+00
 4.95000E+01               5.97750E+00
 5.05000E+01               5.97363E+00
 5.15000E+01               5.96913E+00
 5.25000E+01               5.96391E+00
 5.35000E+01               5.95786E+00
 5.45000E+01               5.95086E+00
 5.55000E+01               5.94280E+00
 5.65000E+01               5.93354E+00
 5.75000E+01               5.92293E+00
 5.85000E+01               5.91083E+00
 5.95000E+01               5.89709E+00
 6.05000E+01               5.88156E+00
 6.15000E+01               5.86408E+00
 6.25000E+01               5.84452E+00
 6.35000E+01               5.82276E+00
 6.45000E+01               5.79868E+00
 6.55000E+01               5.77221E+00
 6.65000E+01               5.74328E+00
 6.75000E+01               5.71188E+00
 6.85000E+01               5.67800E+00
 6.95000E+01               5.64168E+00
 7.05000E+01               5.60299E+00
 7.15000E+01               5.56202E+00
 7.25000E+01               5.51888E+00
 7.35000E+01               5.47370E+00
 7.45000E+01               5.42663E+00
 7.55000E+01               5.37781E+00
 7.65000E+01               5.32739E+00
 7.75000E+01               5.27552E+00
 7.85000E+01               5.22233E+00
 7.95000E+01               5.16796E+00
 8.05000E+01               5.11253E+00
 8.15000E+01               5.05615E+00
 8.25000E+01               4.99892E+00
 8.35000E+01               4.94092E+00
 8.45000E+01               4.88225E+00
 8.55000E+01               4.82297E+00
 8.65000E+01               4.76318E+00
 8.75000E+01               4.70295E+00
 8.85000E+01               4.64239E+00
 8.95000E+01               4.58164E+00
 9.05000E+01               4.52084E+00
 9.15000E+01               4.46021E+00
 9.25000E+01               4.40000E+00
 9.35000E+01               4.34051E+00
 9.45000E+01               4.28212E+00
 9.55000E+01               4.22525E+00
 9.65000E+01               4.17033E+00
 9.75000E+01               4.11783E+00
 9.85000E+01               4.06820E+00
 9.95000E+01               4.02182E+00
