 TITLE = " Years"
 VARIABLES = "X (meters)", "pH "
 ZONE F=POINT,I=         100
 5.00000E-01               5.43239E+00
 1.50000E+00               5.43186E+00
 2.50000E+00               5.43079E+00
 3.50000E+00               5.42920E+00
 4.50000E+00               5.42708E+00
 5.50000E+00               5.42443E+00
 6.50000E+00               5.42126E+00
 7.50000E+00               5.41758E+00
 8.50000E+00               5.41338E+00
 9.50000E+00               5.40868E+00
 1.05000E+01               5.40348E+00
 1.15000E+01               5.39778E+00
 1.25000E+01               5.39161E+00
 1.35000E+01               5.38495E+00
 1.45000E+01               5.37782E+00
 1.55000E+01               5.37024E+00
 1.65000E+01               5.36220E+00
 1.75000E+01               5.35372E+00
 1.85000E+01               5.34481E+00
 1.95000E+01               5.33548E+00
 2.05000E+01               5.32574E+00
 2.15000E+01               5.31560E+00
 2.25000E+01               5.30506E+00
 2.35000E+01               5.29415E+00
 2.45000E+01               5.28286E+00
 2.55000E+01               5.27122E+00
 2.65000E+01               5.25923E+00
 2.75000E+01               5.24690E+00
 2.85000E+01               5.23424E+00
 2.95000E+01               5.22126E+00
 3.05000E+01               5.20798E+00
 3.15000E+01               5.19440E+00
 3.25000E+01               5.18053E+00
 3.35000E+01               5.16638E+00
 3.45000E+01               5.15196E+00
 3.55000E+01               5.13728E+00
 3.65000E+01               5.12235E+00
 3.75000E+01               5.10718E+00
 3.85000E+01               5.09178E+00
 3.95000E+01               5.07615E+00
 4.05000E+01               5.06030E+00
 4.15000E+01               5.04425E+00
 4.25000E+01               5.02799E+00
 4.35000E+01               5.01153E+00
 4.45000E+01               4.99489E+00
 4.55000E+01               4.97807E+00
 4.65000E+01               4.96107E+00
 4.75000E+01               4.94390E+00
 4.85000E+01               4.92658E+00
 4.95000E+01               4.90909E+00
 5.05000E+01               4.89146E+00
 5.15000E+01               4.87368E+00
 5.25000E+01               4.85577E+00
 5.35000E+01               4.83772E+00
 5.45000E+01               4.81954E+00
 5.55000E+01               4.80124E+00
 5.65000E+01               4.78283E+00
 5.75000E+01               4.76430E+00
 5.85000E+01               4.74567E+00
 5.95000E+01               4.72694E+00
 6.05000E+01               4.70811E+00
 6.15000E+01               4.68920E+00
 6.25000E+01               4.67020E+00
 6.35000E+01               4.65112E+00
 6.45000E+01               4.63198E+00
 6.55000E+01               4.61277E+00
 6.65000E+01               4.59351E+00
 6.75000E+01               4.57420E+00
 6.85000E+01               4.55484E+00
 6.95000E+01               4.53546E+00
 7.05000E+01               4.51605E+00
 7.15000E+01               4.49663E+00
 7.25000E+01               4.47720E+00
 7.35000E+01               4.45779E+00
 7.45000E+01               4.43839E+00
 7.55000E+01               4.41903E+00
 7.65000E+01               4.39971E+00
 7.75000E+01               4.38045E+00
 7.85000E+01               4.36126E+00
 7.95000E+01               4.34217E+00
 8.05000E+01               4.32317E+00
 8.15000E+01               4.30431E+00
 8.25000E+01               4.28558E+00
 8.35000E+01               4.26701E+00
 8.45000E+01               4.24861E+00
 8.55000E+01               4.23042E+00
 8.65000E+01               4.21243E+00
 8.75000E+01               4.19468E+00
 8.85000E+01               4.17719E+00
 8.95000E+01               4.15997E+00
 9.05000E+01               4.14304E+00
 9.15000E+01               4.12642E+00
 9.25000E+01               4.11012E+00
 9.35000E+01               4.09418E+00
 9.45000E+01               4.07859E+00
 9.55000E+01               4.06339E+00
 9.65000E+01               4.04857E+00
 9.75000E+01               4.03416E+00
 9.85000E+01               4.02017E+00
 9.95000E+01               4.00660E+00
