 TITLE = " Years"
 VARIABLES = "X (meters)", "pH "
 ZONE F=POINT,I=         100
 5.00000E-01               5.25998E+00
 1.50000E+00               5.25949E+00
 2.50000E+00               5.25850E+00
 3.50000E+00               5.25702E+00
 4.50000E+00               5.25506E+00
 5.50000E+00               5.25260E+00
 6.50000E+00               5.24967E+00
 7.50000E+00               5.24626E+00
 8.50000E+00               5.24237E+00
 9.50000E+00               5.23802E+00
 1.05000E+01               5.23321E+00
 1.15000E+01               5.22795E+00
 1.25000E+01               5.22224E+00
 1.35000E+01               5.21610E+00
 1.45000E+01               5.20953E+00
 1.55000E+01               5.20254E+00
 1.65000E+01               5.19514E+00
 1.75000E+01               5.18734E+00
 1.85000E+01               5.17916E+00
 1.95000E+01               5.17059E+00
 2.05000E+01               5.16165E+00
 2.15000E+01               5.15235E+00
 2.25000E+01               5.14271E+00
 2.35000E+01               5.13272E+00
 2.45000E+01               5.12241E+00
 2.55000E+01               5.11178E+00
 2.65000E+01               5.10084E+00
 2.75000E+01               5.08960E+00
 2.85000E+01               5.07808E+00
 2.95000E+01               5.06628E+00
 3.05000E+01               5.05421E+00
 3.15000E+01               5.04188E+00
 3.25000E+01               5.02930E+00
 3.35000E+01               5.01649E+00
 3.45000E+01               5.00344E+00
 3.55000E+01               4.99016E+00
 3.65000E+01               4.97668E+00
 3.75000E+01               4.96298E+00
 3.85000E+01               4.94909E+00
 3.95000E+01               4.93501E+00
 4.05000E+01               4.92074E+00
 4.15000E+01               4.90630E+00
 4.25000E+01               4.89168E+00
 4.35000E+01               4.87691E+00
 4.45000E+01               4.86198E+00
 4.55000E+01               4.84690E+00
 4.65000E+01               4.83168E+00
 4.75000E+01               4.81632E+00
 4.85000E+01               4.80083E+00
 4.95000E+01               4.78521E+00
 5.05000E+01               4.76947E+00
 5.15000E+01               4.75362E+00
 5.25000E+01               4.73767E+00
 5.35000E+01               4.72161E+00
 5.45000E+01               4.70545E+00
 5.55000E+01               4.68920E+00
 5.65000E+01               4.67287E+00
 5.75000E+01               4.65645E+00
 5.85000E+01               4.63996E+00
 5.95000E+01               4.62340E+00
 6.05000E+01               4.60678E+00
 6.15000E+01               4.59011E+00
 6.25000E+01               4.57338E+00
 6.35000E+01               4.55661E+00
 6.45000E+01               4.53981E+00
 6.55000E+01               4.52297E+00
 6.65000E+01               4.50611E+00
 6.75000E+01               4.48924E+00
 6.85000E+01               4.47237E+00
 6.95000E+01               4.45549E+00
 7.05000E+01               4.43863E+00
 7.15000E+01               4.42179E+00
 7.25000E+01               4.40498E+00
 7.35000E+01               4.38821E+00
 7.45000E+01               4.37149E+00
 7.55000E+01               4.35483E+00
 7.65000E+01               4.33825E+00
 7.75000E+01               4.32175E+00
 7.85000E+01               4.30535E+00
 7.95000E+01               4.28906E+00
 8.05000E+01               4.27289E+00
 8.15000E+01               4.25686E+00
 8.25000E+01               4.24097E+00
 8.35000E+01               4.22525E+00
 8.45000E+01               4.20970E+00
 8.55000E+01               4.19434E+00
 8.65000E+01               4.17917E+00
 8.75000E+01               4.16423E+00
 8.85000E+01               4.14950E+00
 8.95000E+01               4.13502E+00
 9.05000E+01               4.12079E+00
 9.15000E+01               4.10682E+00
 9.25000E+01               4.09312E+00
 9.35000E+01               4.07970E+00
 9.45000E+01               4.06657E+00
 9.55000E+01               4.05375E+00
 9.65000E+01               4.04124E+00
 9.75000E+01               4.02904E+00
 9.85000E+01               4.01717E+00
 9.95000E+01               4.00563E+00
