# Units: Mol/kgw
 TITLE = " Years"
VARIABLES = "X (meters)", "H+        ", "Cl-       ", "Na+       ", "NO3-      ", "
 ZONE F=POINT,I=         100
 5.00000E-01               1.00005E-06   1.00000E-04   1.00000E-04   1.00000E-06
 1.50000E+00               1.00005E-06   1.00000E-04   1.00000E-04   1.00000E-06
 2.50000E+00               1.00005E-06   1.00000E-04   1.00000E-04   1.00000E-06
 3.50000E+00               1.00006E-06   1.00000E-04   1.00000E-04   1.00000E-06
 4.50000E+00               1.00006E-06   1.00000E-04   1.00000E-04   1.00000E-06
 5.50000E+00               1.00007E-06   1.00000E-04   1.00000E-04   1.00000E-06
 6.50000E+00               1.00007E-06   1.00000E-04   1.00000E-04   1.00000E-06
 7.50000E+00               1.00008E-06   1.00000E-04   1.00000E-04   1.00000E-06
 8.50000E+00               1.00009E-06   1.00000E-04   1.00000E-04   1.00000E-06
 9.50000E+00               1.00010E-06   1.00000E-04   1.00000E-04   1.00000E-06
 1.05000E+01               1.00011E-06   1.00000E-04   1.00000E-04   1.00000E-06
 1.15000E+01               1.00013E-06   1.00000E-04   1.00000E-04   1.00000E-06
 1.25000E+01               1.00015E-06   1.00000E-04   9.99999E-05   1.00000E-06
 1.35000E+01               1.00017E-06   1.00000E-04   9.99999E-05   1.00000E-06
 1.45000E+01               1.00019E-06   1.00000E-04   9.99999E-05   1.00000E-06
 1.55000E+01               1.00022E-06   1.00000E-04   9.99999E-05   1.00000E-06
 1.65000E+01               1.00026E-06   1.00000E-04   9.99999E-05   1.00000E-06
 1.75000E+01               1.00030E-06   1.00000E-04   9.99999E-05   1.00000E-06
 1.85000E+01               1.00035E-06   1.00000E-04   9.99999E-05   1.00000E-06
 1.95000E+01               1.00041E-06   1.00000E-04   9.99998E-05   1.00000E-06
 2.05000E+01               1.00048E-06   1.00000E-04   9.99998E-05   1.00000E-06
 2.15000E+01               1.00056E-06   1.00000E-04   9.99998E-05   1.00000E-06
 2.25000E+01               1.00065E-06   1.00000E-04   9.99998E-05   1.00000E-06
 2.35000E+01               1.00077E-06   1.00000E-04   9.99997E-05   1.00000E-06
 2.45000E+01               1.00090E-06   1.00001E-04   9.99997E-05   1.00001E-06
 2.55000E+01               1.00105E-06   1.00001E-04   9.99996E-05   1.00001E-06
 2.65000E+01               1.00124E-06   1.00001E-04   9.99995E-05   1.00001E-06
 2.75000E+01               1.00145E-06   1.00001E-04   9.99995E-05   1.00001E-06
 2.85000E+01               1.00171E-06   1.00001E-04   9.99994E-05   1.00001E-06
 2.95000E+01               1.00201E-06   1.00001E-04   9.99993E-05   1.00001E-06
 3.05000E+01               1.00237E-06   1.00001E-04   9.99991E-05   1.00001E-06
 3.15000E+01               1.00278E-06   1.00002E-04   9.99990E-05   1.00002E-06
 3.25000E+01               1.00328E-06   1.00002E-04   9.99988E-05   1.00002E-06
 3.35000E+01               1.00386E-06   1.00002E-04   9.99986E-05   1.00002E-06
 3.45000E+01               1.00455E-06   1.00003E-04   9.99983E-05   1.00003E-06
 3.55000E+01               1.00535E-06   1.00003E-04   9.99980E-05   1.00003E-06
 3.65000E+01               1.00631E-06   1.00004E-04   9.99977E-05   1.00004E-06
 3.75000E+01               1.00743E-06   1.00005E-04   9.99972E-05   1.00004E-06
 3.85000E+01               1.00876E-06   1.00005E-04   9.99967E-05   1.00005E-06
 3.95000E+01               1.01032E-06   1.00006E-04   9.99962E-05   1.00006E-06
 4.05000E+01               1.01217E-06   1.00008E-04   9.99955E-05   1.00007E-06
 4.15000E+01               1.01434E-06   1.00009E-04   9.99947E-05   1.00008E-06
 4.25000E+01               1.01690E-06   1.00011E-04   9.99937E-05   1.00010E-06
 4.35000E+01               1.01991E-06   1.00012E-04   9.99926E-05   1.00011E-06
 4.45000E+01               1.02347E-06   1.00015E-04   9.99913E-05   1.00013E-06
 4.55000E+01               1.02765E-06   1.00017E-04   9.99897E-05   1.00016E-06
 4.65000E+01               1.03257E-06   1.00020E-04   9.99879E-05   1.00019E-06
 4.75000E+01               1.03836E-06   1.00024E-04   9.99857E-05   1.00022E-06
 4.85000E+01               1.04517E-06   1.00028E-04   9.99832E-05   1.00026E-06
 4.95000E+01               1.05318E-06   1.00033E-04   9.99802E-05   1.00031E-06
 5.05000E+01               1.06259E-06   1.00039E-04   9.99768E-05   1.00036E-06
 5.15000E+01               1.07366E-06   1.00046E-04   9.99727E-05   1.00043E-06
 5.25000E+01               1.08665E-06   1.00054E-04   9.99678E-05   1.00051E-06
 5.35000E+01               1.10190E-06   1.00063E-04   9.99622E-05   1.00060E-06
 5.45000E+01               1.11979E-06   1.00075E-04   9.99556E-05   1.00072E-06
 5.55000E+01               1.14077E-06   1.00088E-04   9.99478E-05   1.00085E-06
 5.65000E+01               1.16537E-06   1.00103E-04   9.99387E-05   1.00101E-06
 5.75000E+01               1.19418E-06   1.00121E-04   9.99281E-05   1.00121E-06
 5.85000E+01               1.22791E-06   1.00142E-04   9.99156E-05   1.00145E-06
 5.95000E+01               1.26738E-06   1.00167E-04   9.99011E-05   1.00174E-06
 6.05000E+01               1.31354E-06   1.00196E-04   9.98841E-05   1.00211E-06
 6.15000E+01               1.36747E-06   1.00229E-04   9.98644E-05   1.00257E-06
 6.25000E+01               1.43046E-06   1.00269E-04   9.98413E-05   1.00315E-06
 6.35000E+01               1.50397E-06   1.00315E-04   9.98145E-05   1.00390E-06
 6.45000E+01               1.58971E-06   1.00368E-04   9.97833E-05   1.00486E-06
 6.55000E+01               1.68963E-06   1.00431E-04   9.97471E-05   1.00614E-06
 6.65000E+01               1.80600E-06   1.00503E-04   9.97051E-05   1.00783E-06
 6.75000E+01               1.94143E-06   1.00588E-04   9.96564E-05   1.01011E-06
 6.85000E+01               2.09895E-06   1.00686E-04   9.96001E-05   1.01321E-06
 6.95000E+01               2.28202E-06   1.00800E-04   9.95352E-05   1.01747E-06
 7.05000E+01               2.49464E-06   1.00932E-04   9.94603E-05   1.02337E-06
 7.15000E+01               2.74145E-06   1.01084E-04   9.93742E-05   1.03158E-06
 7.25000E+01               3.02774E-06   1.01260E-04   9.92754E-05   1.04309E-06
 7.35000E+01               3.35967E-06   1.01463E-04   9.91622E-05   1.05928E-06
 7.45000E+01               3.74429E-06   1.01695E-04   9.90329E-05   1.08211E-06
 7.55000E+01               4.18978E-06   1.01961E-04   9.88857E-05   1.11434E-06
 7.65000E+01               4.70556E-06   1.02264E-04   9.87186E-05   1.15987E-06
 7.75000E+01               5.30255E-06   1.02608E-04   9.85297E-05   1.22414E-06
 7.85000E+01               5.99336E-06   1.02996E-04   9.83170E-05   1.31471E-06
 7.95000E+01               6.79263E-06   1.03429E-04   9.80788E-05   1.44201E-06
 8.05000E+01               7.71732E-06   1.03911E-04   9.78137E-05   1.62032E-06
 8.15000E+01               8.78713E-06   1.04439E-04   9.75206E-05   1.86898E-06
 8.25000E+01               1.00249E-05   1.05011E-04   9.71996E-05   2.21394E-06
 8.35000E+01               1.14571E-05   1.05619E-04   9.68517E-05   2.68959E-06
 8.45000E+01               1.31145E-05   1.06253E-04   9.64795E-05   3.34081E-06
 8.55000E+01               1.50324E-05   1.06895E-04   9.60880E-05   4.22522E-06
 8.65000E+01               1.72514E-05   1.07521E-04   9.56852E-05   5.41539E-06
 8.75000E+01               1.98177E-05   1.08100E-04   9.52827E-05   7.00065E-06
 8.85000E+01               2.27828E-05   1.08592E-04   9.48967E-05   9.08794E-06
 8.95000E+01               2.62037E-05   1.08951E-04   9.45488E-05   1.18010E-05
 9.05000E+01               3.01410E-05   1.09131E-04   9.42668E-05   1.52773E-05
 9.15000E+01               3.46568E-05   1.09080E-04   9.40842E-05   1.96607E-05
 9.25000E+01               3.98109E-05   1.08760E-04   9.40399E-05   2.50906E-05
 9.35000E+01               4.56548E-05   1.08145E-04   9.41751E-05   3.16851E-05
 9.45000E+01               5.22247E-05   1.07233E-04   9.45282E-05   3.95198E-05
 9.55000E+01               5.95325E-05   1.06057E-04   9.51266E-05   4.86024E-05
 9.65000E+01               6.75571E-05   1.04684E-04   9.59746E-05   5.88475E-05
 9.75000E+01               7.62370E-05   1.03219E-04   9.70393E-05   7.00574E-05
 9.85000E+01               8.54673E-05   1.01789E-04   9.82394E-05   8.19178E-05
 9.95000E+01               9.51009E-05   1.00528E-04   9.94452E-05   9.40179E-05
