# Units: Mol/kgw
 TITLE = " Years"
VARIABLES = "X (meters)", "H+        ", "Cl-       ", "Na+       ", "NO3-      ", "
 ZONE F=POINT,I=         100
 5.00000E-01               5.49563E-06   1.02827E-04   9.83836E-05   1.05173E-06
 1.50000E+00               5.50188E-06   1.02831E-04   9.83815E-05   1.05201E-06
 2.50000E+00               5.51440E-06   1.02839E-04   9.83773E-05   1.05256E-06
 3.50000E+00               5.53320E-06   1.02851E-04   9.83711E-05   1.05340E-06
 4.50000E+00               5.55833E-06   1.02867E-04   9.83628E-05   1.05453E-06
 5.50000E+00               5.58981E-06   1.02886E-04   9.83523E-05   1.05596E-06
 6.50000E+00               5.62772E-06   1.02910E-04   9.83398E-05   1.05772E-06
 7.50000E+00               5.67211E-06   1.02937E-04   9.83251E-05   1.05982E-06
 8.50000E+00               5.72307E-06   1.02969E-04   9.83083E-05   1.06229E-06
 9.50000E+00               5.78069E-06   1.03005E-04   9.82893E-05   1.06516E-06
 1.05000E+01               5.84507E-06   1.03045E-04   9.82681E-05   1.06846E-06
 1.15000E+01               5.91632E-06   1.03089E-04   9.82447E-05   1.07222E-06
 1.25000E+01               5.99457E-06   1.03137E-04   9.82191E-05   1.07649E-06
 1.35000E+01               6.07996E-06   1.03190E-04   9.81912E-05   1.08133E-06
 1.45000E+01               6.17264E-06   1.03247E-04   9.81610E-05   1.08678E-06
 1.55000E+01               6.27278E-06   1.03308E-04   9.81285E-05   1.09292E-06
 1.65000E+01               6.38056E-06   1.03374E-04   9.80936E-05   1.09980E-06
 1.75000E+01               6.49616E-06   1.03445E-04   9.80563E-05   1.10753E-06
 1.85000E+01               6.61980E-06   1.03520E-04   9.80166E-05   1.11618E-06
 1.95000E+01               6.75169E-06   1.03600E-04   9.79745E-05   1.12585E-06
 2.05000E+01               6.89208E-06   1.03685E-04   9.79298E-05   1.13667E-06
 2.15000E+01               7.04121E-06   1.03775E-04   9.78825E-05   1.14875E-06
 2.25000E+01               7.19934E-06   1.03870E-04   9.78327E-05   1.16225E-06
 2.35000E+01               7.36678E-06   1.03970E-04   9.77802E-05   1.17731E-06
 2.45000E+01               7.54380E-06   1.04075E-04   9.77250E-05   1.19412E-06
 2.55000E+01               7.73074E-06   1.04185E-04   9.76671E-05   1.21288E-06
 2.65000E+01               7.92792E-06   1.04301E-04   9.76064E-05   1.23379E-06
 2.75000E+01               8.13571E-06   1.04422E-04   9.75429E-05   1.25711E-06
 2.85000E+01               8.35448E-06   1.04548E-04   9.74766E-05   1.28310E-06
 2.95000E+01               8.58461E-06   1.04680E-04   9.74074E-05   1.31206E-06
 3.05000E+01               8.82654E-06   1.04817E-04   9.73352E-05   1.34433E-06
 3.15000E+01               9.08069E-06   1.04960E-04   9.72600E-05   1.38027E-06
 3.25000E+01               9.34753E-06   1.05109E-04   9.71819E-05   1.42028E-06
 3.35000E+01               9.62753E-06   1.05263E-04   9.71007E-05   1.46482E-06
 3.45000E+01               9.92121E-06   1.05423E-04   9.70164E-05   1.51438E-06
 3.55000E+01               1.02291E-05   1.05589E-04   9.69290E-05   1.56951E-06
 3.65000E+01               1.05518E-05   1.05760E-04   9.68386E-05   1.63079E-06
 3.75000E+01               1.08898E-05   1.05936E-04   9.67450E-05   1.69891E-06
 3.85000E+01               1.12437E-05   1.06117E-04   9.66483E-05   1.77457E-06
 3.95000E+01               1.16143E-05   1.06304E-04   9.65485E-05   1.85859E-06
 4.05000E+01               1.20022E-05   1.06496E-04   9.64457E-05   1.95181E-06
 4.15000E+01               1.24080E-05   1.06693E-04   9.63397E-05   2.05522E-06
 4.25000E+01               1.28326E-05   1.06894E-04   9.62308E-05   2.16983E-06
 4.35000E+01               1.32767E-05   1.07099E-04   9.61189E-05   2.29679E-06
 4.45000E+01               1.37411E-05   1.07308E-04   9.60041E-05   2.43734E-06
 4.55000E+01               1.42266E-05   1.07520E-04   9.58865E-05   2.59281E-06
 4.65000E+01               1.47341E-05   1.07736E-04   9.57662E-05   2.76467E-06
 4.75000E+01               1.52645E-05   1.07953E-04   9.56434E-05   2.95449E-06
 4.85000E+01               1.58188E-05   1.08173E-04   9.55182E-05   3.16398E-06
 4.95000E+01               1.63980E-05   1.08394E-04   9.53907E-05   3.39498E-06
 5.05000E+01               1.70030E-05   1.08615E-04   9.52613E-05   3.64946E-06
 5.15000E+01               1.76350E-05   1.08836E-04   9.51301E-05   3.92955E-06
 5.25000E+01               1.82950E-05   1.09055E-04   9.49974E-05   4.23752E-06
 5.35000E+01               1.89842E-05   1.09272E-04   9.48635E-05   4.57580E-06
 5.45000E+01               1.97038E-05   1.09486E-04   9.47288E-05   4.94698E-06
 5.55000E+01               2.04550E-05   1.09695E-04   9.45936E-05   5.35379E-06
 5.65000E+01               2.12390E-05   1.09898E-04   9.44585E-05   5.79915E-06
 5.75000E+01               2.20571E-05   1.10095E-04   9.43238E-05   6.28613E-06
 5.85000E+01               2.29107E-05   1.10283E-04   9.41902E-05   6.81793E-06
 5.95000E+01               2.38010E-05   1.10461E-04   9.40581E-05   7.39795E-06
 6.05000E+01               2.47295E-05   1.10628E-04   9.39283E-05   8.02969E-06
 6.15000E+01               2.56976E-05   1.10782E-04   9.38015E-05   8.71683E-06
 6.25000E+01               2.67066E-05   1.10922E-04   9.36783E-05   9.46313E-06
 6.35000E+01               2.77580E-05   1.11045E-04   9.35597E-05   1.02725E-05
 6.45000E+01               2.88532E-05   1.11151E-04   9.34465E-05   1.11489E-05
 6.55000E+01               2.99937E-05   1.11237E-04   9.33397E-05   1.20964E-05
 6.65000E+01               3.11807E-05   1.11302E-04   9.32402E-05   1.31190E-05
 6.75000E+01               3.24159E-05   1.11344E-04   9.31492E-05   1.42209E-05
 6.85000E+01               3.37003E-05   1.11362E-04   9.30677E-05   1.54060E-05
 6.95000E+01               3.50355E-05   1.11354E-04   9.29971E-05   1.66785E-05
 7.05000E+01               3.64226E-05   1.11319E-04   9.29384E-05   1.80422E-05
 7.15000E+01               3.78628E-05   1.11255E-04   9.28930E-05   1.95009E-05
 7.25000E+01               3.93572E-05   1.11161E-04   9.28621E-05   2.10580E-05
 7.35000E+01               4.09067E-05   1.11037E-04   9.28472E-05   2.27168E-05
 7.45000E+01               4.25121E-05   1.10881E-04   9.28496E-05   2.44804E-05
 7.55000E+01               4.41743E-05   1.10694E-04   9.28706E-05   2.63511E-05
 7.65000E+01               4.58937E-05   1.10474E-04   9.29115E-05   2.83313E-05
 7.75000E+01               4.76706E-05   1.10222E-04   9.29735E-05   3.04225E-05
 7.85000E+01               4.95052E-05   1.09938E-04   9.30580E-05   3.26257E-05
 7.95000E+01               5.13975E-05   1.09622E-04   9.31660E-05   3.49415E-05
 8.05000E+01               5.33470E-05   1.09276E-04   9.32984E-05   3.73694E-05
 8.15000E+01               5.53533E-05   1.08901E-04   9.34561E-05   3.99085E-05
 8.25000E+01               5.74154E-05   1.08498E-04   9.36397E-05   4.25569E-05
 8.35000E+01               5.95323E-05   1.08070E-04   9.38496E-05   4.53120E-05
 8.45000E+01               6.17024E-05   1.07618E-04   9.40859E-05   4.81702E-05
 8.55000E+01               6.39240E-05   1.07145E-04   9.43485E-05   5.11270E-05
 8.65000E+01               6.61950E-05   1.06655E-04   9.46367E-05   5.41770E-05
 8.75000E+01               6.85130E-05   1.06149E-04   9.49499E-05   5.73137E-05
 8.85000E+01               7.08753E-05   1.05632E-04   9.52866E-05   6.05300E-05
 8.95000E+01               7.32789E-05   1.05107E-04   9.56452E-05   6.38176E-05
 9.05000E+01               7.57204E-05   1.04577E-04   9.60236E-05   6.71674E-05
 9.15000E+01               7.81961E-05   1.04046E-04   9.64195E-05   7.05697E-05
 9.25000E+01               8.07021E-05   1.03518E-04   9.68297E-05   7.40138E-05
 9.35000E+01               8.32342E-05   1.02997E-04   9.72513E-05   7.74888E-05
 9.45000E+01               8.57880E-05   1.02486E-04   9.76804E-05   8.09829E-05
 9.55000E+01               8.83588E-05   1.01988E-04   9.81134E-05   8.44842E-05
 9.65000E+01               9.09418E-05   1.01507E-04   9.85462E-05   8.79806E-05
 9.75000E+01               9.35317E-05   1.01047E-04   9.89748E-05   9.14598E-05
 9.85000E+01               9.61236E-05   1.00609E-04   9.93949E-05   9.49098E-05
 9.95000E+01               9.87120E-05   1.00196E-04   9.98025E-05   9.83187E-05
