# Units: Mol/kgw
 TITLE = " Years"
VARIABLES = "X (meters)", "H+        ", "Cl-       ", "Na+       ", "NO3-      ", "
 ZONE F=POINT,I=         100
 5.00000E-01               3.69495E-06   1.01691E-04   9.90212E-05   1.02543E-06
 1.50000E+00               3.69948E-06   1.01694E-04   9.90197E-05   1.02556E-06
 2.50000E+00               3.70856E-06   1.01699E-04   9.90165E-05   1.02581E-06
 3.50000E+00               3.72220E-06   1.01708E-04   9.90118E-05   1.02619E-06
 4.50000E+00               3.74043E-06   1.01719E-04   9.90056E-05   1.02671E-06
 5.50000E+00               3.76330E-06   1.01734E-04   9.89977E-05   1.02737E-06
 6.50000E+00               3.79085E-06   1.01751E-04   9.89882E-05   1.02817E-06
 7.50000E+00               3.82315E-06   1.01771E-04   9.89771E-05   1.02914E-06
 8.50000E+00               3.86027E-06   1.01794E-04   9.89644E-05   1.03027E-06
 9.50000E+00               3.90229E-06   1.01821E-04   9.89500E-05   1.03159E-06
 1.05000E+01               3.94931E-06   1.01850E-04   9.89339E-05   1.03311E-06
 1.15000E+01               4.00143E-06   1.01883E-04   9.89161E-05   1.03485E-06
 1.25000E+01               4.05877E-06   1.01918E-04   9.88965E-05   1.03683E-06
 1.35000E+01               4.12146E-06   1.01958E-04   9.88751E-05   1.03907E-06
 1.45000E+01               4.18964E-06   1.02000E-04   9.88520E-05   1.04160E-06
 1.55000E+01               4.26346E-06   1.02046E-04   9.88270E-05   1.04447E-06
 1.65000E+01               4.34308E-06   1.02095E-04   9.88000E-05   1.04769E-06
 1.75000E+01               4.42870E-06   1.02149E-04   9.87712E-05   1.05131E-06
 1.85000E+01               4.52049E-06   1.02205E-04   9.87403E-05   1.05539E-06
 1.95000E+01               4.61866E-06   1.02266E-04   9.87074E-05   1.05997E-06
 2.05000E+01               4.72344E-06   1.02331E-04   9.86724E-05   1.06510E-06
 2.15000E+01               4.83506E-06   1.02399E-04   9.86353E-05   1.07087E-06
 2.25000E+01               4.95378E-06   1.02472E-04   9.85959E-05   1.07735E-06
 2.35000E+01               5.07985E-06   1.02550E-04   9.85543E-05   1.08461E-06
 2.45000E+01               5.21358E-06   1.02631E-04   9.85104E-05   1.09277E-06
 2.55000E+01               5.35525E-06   1.02717E-04   9.84640E-05   1.10191E-06
 2.65000E+01               5.50519E-06   1.02808E-04   9.84152E-05   1.11218E-06
 2.75000E+01               5.66374E-06   1.02904E-04   9.83639E-05   1.12370E-06
 2.85000E+01               5.83125E-06   1.03005E-04   9.83100E-05   1.13663E-06
 2.95000E+01               6.00812E-06   1.03110E-04   9.82534E-05   1.15114E-06
 3.05000E+01               6.19473E-06   1.03221E-04   9.81941E-05   1.16743E-06
 3.15000E+01               6.39153E-06   1.03338E-04   9.81319E-05   1.18571E-06
 3.25000E+01               6.59895E-06   1.03460E-04   9.80669E-05   1.20623E-06
 3.35000E+01               6.81747E-06   1.03587E-04   9.79989E-05   1.22926E-06
 3.45000E+01               7.04758E-06   1.03720E-04   9.79279E-05   1.25511E-06
 3.55000E+01               7.28983E-06   1.03859E-04   9.78538E-05   1.28412E-06
 3.65000E+01               7.54476E-06   1.04005E-04   9.77765E-05   1.31667E-06
 3.75000E+01               7.81297E-06   1.04156E-04   9.76959E-05   1.35319E-06
 3.85000E+01               8.09506E-06   1.04313E-04   9.76121E-05   1.39416E-06
 3.95000E+01               8.39170E-06   1.04476E-04   9.75249E-05   1.44010E-06
 4.05000E+01               8.70356E-06   1.04646E-04   9.74342E-05   1.49161E-06
 4.15000E+01               9.03138E-06   1.04822E-04   9.73401E-05   1.54934E-06
 4.25000E+01               9.37590E-06   1.05004E-04   9.72425E-05   1.61403E-06
 4.35000E+01               9.73795E-06   1.05193E-04   9.71413E-05   1.68649E-06
 4.45000E+01               1.01183E-05   1.05387E-04   9.70365E-05   1.76761E-06
 4.55000E+01               1.05180E-05   1.05588E-04   9.69281E-05   1.85840E-06
 4.65000E+01               1.09378E-05   1.05794E-04   9.68162E-05   1.95995E-06
 4.75000E+01               1.13788E-05   1.06006E-04   9.67006E-05   2.07347E-06
 4.85000E+01               1.18420E-05   1.06223E-04   9.65815E-05   2.20031E-06
 4.95000E+01               1.23284E-05   1.06445E-04   9.64589E-05   2.34194E-06
 5.05000E+01               1.28393E-05   1.06672E-04   9.63329E-05   2.49997E-06
 5.15000E+01               1.33758E-05   1.06903E-04   9.62035E-05   2.67619E-06
 5.25000E+01               1.39391E-05   1.07138E-04   9.60710E-05   2.87254E-06
 5.35000E+01               1.45306E-05   1.07375E-04   9.59354E-05   3.09113E-06
 5.45000E+01               1.51516E-05   1.07614E-04   9.57969E-05   3.33429E-06
 5.55000E+01               1.58037E-05   1.07855E-04   9.56558E-05   3.60453E-06
 5.65000E+01               1.64882E-05   1.08096E-04   9.55123E-05   3.90459E-06
 5.75000E+01               1.72067E-05   1.08336E-04   9.53669E-05   4.23740E-06
 5.85000E+01               1.79610E-05   1.08575E-04   9.52197E-05   4.60618E-06
 5.95000E+01               1.87526E-05   1.08810E-04   9.50714E-05   5.01434E-06
 6.05000E+01               1.95834E-05   1.09040E-04   9.49223E-05   5.46557E-06
 6.15000E+01               2.04552E-05   1.09264E-04   9.47730E-05   5.96380E-06
 6.25000E+01               2.13698E-05   1.09481E-04   9.46241E-05   6.51323E-06
 6.35000E+01               2.23293E-05   1.09687E-04   9.44765E-05   7.11831E-06
 6.45000E+01               2.33357E-05   1.09883E-04   9.43307E-05   7.78374E-06
 6.55000E+01               2.43909E-05   1.10064E-04   9.41878E-05   8.51445E-06
 6.65000E+01               2.54972E-05   1.10230E-04   9.40486E-05   9.31564E-06
 6.75000E+01               2.66566E-05   1.10378E-04   9.39143E-05   1.01927E-05
 6.85000E+01               2.78713E-05   1.10506E-04   9.37860E-05   1.11512E-05
 6.95000E+01               2.91435E-05   1.10612E-04   9.36650E-05   1.21968E-05
 7.05000E+01               3.04755E-05   1.10693E-04   9.35525E-05   1.33355E-05
 7.15000E+01               3.18692E-05   1.10746E-04   9.34502E-05   1.45731E-05
 7.25000E+01               3.33270E-05   1.10771E-04   9.33596E-05   1.59156E-05
 7.35000E+01               3.48508E-05   1.10764E-04   9.32823E-05   1.73689E-05
 7.45000E+01               3.64425E-05   1.10724E-04   9.32201E-05   1.89386E-05
 7.55000E+01               3.81042E-05   1.10649E-04   9.31748E-05   2.06305E-05
 7.65000E+01               3.98375E-05   1.10536E-04   9.31482E-05   2.24496E-05
 7.75000E+01               4.16440E-05   1.10386E-04   9.31424E-05   2.44009E-05
 7.85000E+01               4.35249E-05   1.10196E-04   9.31593E-05   2.64886E-05
 7.95000E+01               4.54815E-05   1.09966E-04   9.32007E-05   2.87165E-05
 8.05000E+01               4.75144E-05   1.09696E-04   9.32685E-05   3.10874E-05
 8.15000E+01               4.96242E-05   1.09385E-04   9.33646E-05   3.36034E-05
 8.25000E+01               5.18110E-05   1.09036E-04   9.34904E-05   3.62655E-05
 8.35000E+01               5.40745E-05   1.08649E-04   9.36475E-05   3.90735E-05
 8.45000E+01               5.64139E-05   1.08225E-04   9.38369E-05   4.20259E-05
 8.55000E+01               5.88280E-05   1.07767E-04   9.40595E-05   4.51200E-05
 8.65000E+01               6.13150E-05   1.07279E-04   9.43156E-05   4.83515E-05
 8.75000E+01               6.38728E-05   1.06764E-04   9.46051E-05   5.17143E-05
 8.85000E+01               6.64984E-05   1.06225E-04   9.49273E-05   5.52011E-05
 8.95000E+01               6.91884E-05   1.05667E-04   9.52810E-05   5.88025E-05
 9.05000E+01               7.19389E-05   1.05095E-04   9.56643E-05   6.25078E-05
 9.15000E+01               7.47454E-05   1.04515E-04   9.60743E-05   6.63045E-05
 9.25000E+01               7.76026E-05   1.03932E-04   9.65078E-05   7.01786E-05
 9.35000E+01               8.05049E-05   1.03351E-04   9.69606E-05   7.41147E-05
 9.45000E+01               8.34463E-05   1.02778E-04   9.74280E-05   7.80964E-05
 9.55000E+01               8.64200E-05   1.02218E-04   9.79045E-05   8.21061E-05
 9.65000E+01               8.94189E-05   1.01678E-04   9.83843E-05   8.61256E-05
 9.75000E+01               9.24357E-05   1.01161E-04   9.88613E-05   9.01365E-05
 9.85000E+01               9.54625E-05   1.00672E-04   9.93293E-05   9.41201E-05
 9.95000E+01               9.84913E-05   1.00215E-04   9.97818E-05   9.80583E-05
