title = "dataset diffvar"
variables = "x", "y", "z", "K_xx", "K_yy", "K_zz"
zone t = "K - initial [m/s]", i =   26, j =    1, k =    1,  f=point
  0.0000000E+00  0.0000000E+00  0.0000000E+00  0.0000000E+00  0.0000000E+00  0.1000000E-05
  0.0000000E+00  0.0000000E+00  0.6000000E-01  0.0000000E+00  0.0000000E+00  0.1000000E-05
  0.0000000E+00  0.0000000E+00  0.1200000E+00  0.0000000E+00  0.0000000E+00  0.1000000E-05
  0.0000000E+00  0.0000000E+00  0.1800000E+00  0.0000000E+00  0.0000000E+00  0.1000000E-05
  0.0000000E+00  0.0000000E+00  0.2400000E+00  0.0000000E+00  0.0000000E+00  0.1000000E-05
  0.0000000E+00  0.0000000E+00  0.3000000E+00  0.0000000E+00  0.0000000E+00  0.1000000E-05
  0.0000000E+00  0.0000000E+00  0.3600000E+00  0.0000000E+00  0.0000000E+00  0.1000000E-05
  0.0000000E+00  0.0000000E+00  0.4200000E+00  0.0000000E+00  0.0000000E+00  0.1000000E-05
  0.0000000E+00  0.0000000E+00  0.4800000E+00  0.0000000E+00  0.0000000E+00  0.1000000E-05
  0.0000000E+00  0.0000000E+00  0.5400000E+00  0.0000000E+00  0.0000000E+00  0.1000000E-05
  0.0000000E+00  0.0000000E+00  0.6000000E+00  0.0000000E+00  0.0000000E+00  0.1000000E-05
  0.0000000E+00  0.0000000E+00  0.6600000E+00  0.0000000E+00  0.0000000E+00  0.1000000E-05
  0.0000000E+00  0.0000000E+00  0.7200000E+00  0.0000000E+00  0.0000000E+00  0.1000000E-05
  0.0000000E+00  0.0000000E+00  0.7800000E+00  0.0000000E+00  0.0000000E+00  0.1000000E-05
  0.0000000E+00  0.0000000E+00  0.8400000E+00  0.0000000E+00  0.0000000E+00  0.1000000E-05
  0.0000000E+00  0.0000000E+00  0.9000000E+00  0.0000000E+00  0.0000000E+00  0.1000000E-05
  0.0000000E+00  0.0000000E+00  0.9600000E+00  0.0000000E+00  0.0000000E+00  0.1000000E-05
  0.0000000E+00  0.0000000E+00  0.1020000E+01  0.0000000E+00  0.0000000E+00  0.1000000E-05
  0.0000000E+00  0.0000000E+00  0.1080000E+01  0.0000000E+00  0.0000000E+00  0.1000000E-05
  0.0000000E+00  0.0000000E+00  0.1140000E+01  0.0000000E+00  0.0000000E+00  0.1000000E-05
  0.0000000E+00  0.0000000E+00  0.1200000E+01  0.0000000E+00  0.0000000E+00  0.1000000E-05
  0.0000000E+00  0.0000000E+00  0.1260000E+01  0.0000000E+00  0.0000000E+00  0.1000000E-05
  0.0000000E+00  0.0000000E+00  0.1320000E+01  0.0000000E+00  0.0000000E+00  0.1000000E-05
  0.0000000E+00  0.0000000E+00  0.1380000E+01  0.0000000E+00  0.0000000E+00  0.1000000E-05
  0.0000000E+00  0.0000000E+00  0.1440000E+01  0.0000000E+00  0.0000000E+00  0.1000000E-05
  0.0000000E+00  0.0000000E+00  0.1500000E+01  0.0000000E+00  0.0000000E+00  0.1000000E-05
