title = "dataset weather"
variables = "x", "y", "z","ca+2","na+1","co3-2","h4sio4","al+3","h+1"
zone t = "T_j, T =  5.000E+00 years", i =   81, j =    1, k =    1,  f=point
  0.0000000E+00  0.0000000E+00  0.0000000E+00  0.1688250E-03  0.7497670E-04  0.1738250E-03  0.1859302E-03  0.6197688E-04 -0.2065072E-03
  0.0000000E+00  0.0000000E+00  0.5000000E-02  0.1688249E-03  0.7497669E-04  0.1738250E-03  0.1859302E-03  0.6197687E-04 -0.2065071E-03
  0.0000000E+00  0.0000000E+00  0.1000000E-01  0.1688249E-03  0.7497668E-04  0.1738249E-03  0.1859302E-03  0.6197687E-04 -0.2065071E-03
  0.0000000E+00  0.0000000E+00  0.1500000E-01  0.1688249E-03  0.7497668E-04  0.1738249E-03  0.1859302E-03  0.6197685E-04 -0.2065071E-03
  0.0000000E+00  0.0000000E+00  0.2000000E-01  0.1688249E-03  0.7497666E-04  0.1738249E-03  0.1859301E-03  0.6197684E-04 -0.2065070E-03
  0.0000000E+00  0.0000000E+00  0.2500000E-01  0.1688249E-03  0.7497665E-04  0.1738249E-03  0.1859301E-03  0.6197682E-04 -0.2065069E-03
  0.0000000E+00  0.0000000E+00  0.3000000E-01  0.1688249E-03  0.7497663E-04  0.1738249E-03  0.1859300E-03  0.6197680E-04 -0.2065068E-03
  0.0000000E+00  0.0000000E+00  0.3500000E-01  0.1688249E-03  0.7497660E-04  0.1738249E-03  0.1859299E-03  0.6197677E-04 -0.2065067E-03
  0.0000000E+00  0.0000000E+00  0.4000000E-01  0.1688249E-03  0.7497657E-04  0.1738249E-03  0.1859298E-03  0.6197674E-04 -0.2065066E-03
  0.0000000E+00  0.0000000E+00  0.4500000E-01  0.1688249E-03  0.7497652E-04  0.1738249E-03  0.1859297E-03  0.6197669E-04 -0.2065064E-03
  0.0000000E+00  0.0000000E+00  0.5000000E-01  0.1688248E-03  0.7497647E-04  0.1738248E-03  0.1859295E-03  0.6197663E-04 -0.2065062E-03
  0.0000000E+00  0.0000000E+00  0.5500000E-01  0.1688248E-03  0.7497640E-04  0.1738248E-03  0.1859293E-03  0.6197656E-04 -0.2065059E-03
  0.0000000E+00  0.0000000E+00  0.6000000E-01  0.1688248E-03  0.7497630E-04  0.1738248E-03  0.1859290E-03  0.6197647E-04 -0.2065055E-03
  0.0000000E+00  0.0000000E+00  0.6500000E-01  0.1688247E-03  0.7497618E-04  0.1738247E-03  0.1859287E-03  0.6197635E-04 -0.2065050E-03
  0.0000000E+00  0.0000000E+00  0.7000000E-01  0.1688246E-03  0.7497603E-04  0.1738246E-03  0.1859282E-03  0.6197619E-04 -0.2065044E-03
  0.0000000E+00  0.0000000E+00  0.7500000E-01  0.1688245E-03  0.7497583E-04  0.1738245E-03  0.1859276E-03  0.6197600E-04 -0.2065036E-03
  0.0000000E+00  0.0000000E+00  0.8000000E-01  0.1688244E-03  0.7497558E-04  0.1738244E-03  0.1859269E-03  0.6197575E-04 -0.2065026E-03
  0.0000000E+00  0.0000000E+00  0.8500000E-01  0.1688243E-03  0.7497526E-04  0.1738243E-03  0.1859259E-03  0.6197543E-04 -0.2065014E-03
  0.0000000E+00  0.0000000E+00  0.9000000E-01  0.1688241E-03  0.7497485E-04  0.1738241E-03  0.1859247E-03  0.6197503E-04 -0.2064997E-03
  0.0000000E+00  0.0000000E+00  0.9500000E-01  0.1688238E-03  0.7497432E-04  0.1738238E-03  0.1859231E-03  0.6197450E-04 -0.2064977E-03
  0.0000000E+00  0.0000000E+00  0.1000000E+00  0.1688235E-03  0.7497365E-04  0.1738235E-03  0.1859211E-03  0.6197384E-04 -0.2064950E-03
  0.0000000E+00  0.0000000E+00  0.1050000E+00  0.1688231E-03  0.7497279E-04  0.1738231E-03  0.1859185E-03  0.6197298E-04 -0.2064916E-03
  0.0000000E+00  0.0000000E+00  0.1100000E+00  0.1688226E-03  0.7497170E-04  0.1738226E-03  0.1859152E-03  0.6197189E-04 -0.2064872E-03
  0.0000000E+00  0.0000000E+00  0.1150000E+00  0.1688219E-03  0.7497030E-04  0.1738219E-03  0.1859111E-03  0.6197049E-04 -0.2064816E-03
  0.0000000E+00  0.0000000E+00  0.1200000E+00  0.1688210E-03  0.7496851E-04  0.1738210E-03  0.1859057E-03  0.6196871E-04 -0.2064745E-03
  0.0000000E+00  0.0000000E+00  0.1250000E+00  0.1688199E-03  0.7496624E-04  0.1738199E-03  0.1858989E-03  0.6196644E-04 -0.2064654E-03
  0.0000000E+00  0.0000000E+00  0.1300000E+00  0.1688185E-03  0.7496333E-04  0.1738186E-03  0.1858902E-03  0.6196354E-04 -0.2064538E-03
  0.0000000E+00  0.0000000E+00  0.1350000E+00  0.1688168E-03  0.7495963E-04  0.1738168E-03  0.1858791E-03  0.6195983E-04 -0.2064390E-03
  0.0000000E+00  0.0000000E+00  0.1400000E+00  0.1688145E-03  0.7495491E-04  0.1738145E-03  0.1858649E-03  0.6195511E-04 -0.2064201E-03
  0.0000000E+00  0.0000000E+00  0.1450000E+00  0.1688116E-03  0.7494889E-04  0.1738116E-03  0.1858468E-03  0.6194909E-04 -0.2063960E-03
  0.0000000E+00  0.0000000E+00  0.1500000E+00  0.1688080E-03  0.7494122E-04  0.1738080E-03  0.1858238E-03  0.6194141E-04 -0.2063653E-03
  0.0000000E+00  0.0000000E+00  0.1550000E+00  0.1688033E-03  0.7493144E-04  0.1738033E-03  0.1857945E-03  0.6193162E-04 -0.2063261E-03
  0.0000000E+00  0.0000000E+00  0.1600000E+00  0.1687973E-03  0.7491895E-04  0.1737973E-03  0.1857570E-03  0.6191913E-04 -0.2062762E-03
  0.0000000E+00  0.0000000E+00  0.1650000E+00  0.1687897E-03  0.7490302E-04  0.1737897E-03  0.1857092E-03  0.6190319E-04 -0.2062124E-03
  0.0000000E+00  0.0000000E+00  0.1700000E+00  0.1687799E-03  0.7488268E-04  0.1737799E-03  0.1856482E-03  0.6188285E-04 -0.2061310E-03
  0.0000000E+00  0.0000000E+00  0.1750000E+00  0.1687675E-03  0.7485670E-04  0.1737675E-03  0.1855702E-03  0.6185686E-04 -0.2060271E-03
  0.0000000E+00  0.0000000E+00  0.1800000E+00  0.1687515E-03  0.7482351E-04  0.1737516E-03  0.1854706E-03  0.6182365E-04 -0.2058942E-03
  0.0000000E+00  0.0000000E+00  0.1850000E+00  0.1687312E-03  0.7478106E-04  0.1737312E-03  0.1853433E-03  0.6178120E-04 -0.2057244E-03
  0.0000000E+00  0.0000000E+00  0.1900000E+00  0.1687052E-03  0.7472678E-04  0.1737052E-03  0.1851804E-03  0.6172691E-04 -0.2055073E-03
  0.0000000E+00  0.0000000E+00  0.1950000E+00  0.1686719E-03  0.7465733E-04  0.1736719E-03  0.1849721E-03  0.6165746E-04 -0.2052295E-03
  0.0000000E+00  0.0000000E+00  0.2000000E+00  0.1686293E-03  0.7456849E-04  0.1736293E-03  0.1847056E-03  0.6156862E-04 -0.2048741E-03
  0.0000000E+00  0.0000000E+00  0.2050000E+00  0.1685747E-03  0.7445487E-04  0.1735747E-03  0.1843647E-03  0.6145500E-04 -0.2044196E-03
  0.0000000E+00  0.0000000E+00  0.2100000E+00  0.1685050E-03  0.7430968E-04  0.1735050E-03  0.1839292E-03  0.6130981E-04 -0.2038388E-03
  0.0000000E+00  0.0000000E+00  0.2150000E+00  0.1684160E-03  0.7412439E-04  0.1734160E-03  0.1833733E-03  0.6112452E-04 -0.2030977E-03
  0.0000000E+00  0.0000000E+00  0.2200000E+00  0.1683025E-03  0.7388839E-04  0.1733025E-03  0.1826653E-03  0.6088853E-04 -0.2021537E-03
  0.0000000E+00  0.0000000E+00  0.2250000E+00  0.1681582E-03  0.7358867E-04  0.1731582E-03  0.1817661E-03  0.6058881E-04 -0.2009549E-03
  0.0000000E+00  0.0000000E+00  0.2300000E+00  0.1679754E-03  0.7320950E-04  0.1729754E-03  0.1806286E-03  0.6020966E-04 -0.1994383E-03
  0.0000000E+00  0.0000000E+00  0.2350000E+00  0.1677449E-03  0.7273226E-04  0.1727449E-03  0.1791969E-03  0.5973243E-04 -0.1975294E-03
  0.0000000E+00  0.0000000E+00  0.2400000E+00  0.1674560E-03  0.7213546E-04  0.1724560E-03  0.1774065E-03  0.5913564E-04 -0.1951422E-03
  0.0000000E+00  0.0000000E+00  0.2450000E+00  0.1670966E-03  0.7139511E-04  0.1720966E-03  0.1751855E-03  0.5839530E-04 -0.1921809E-03
  0.0000000E+00  0.0000000E+00  0.2500000E+00  0.1666536E-03  0.7048561E-04  0.1716536E-03  0.1724570E-03  0.5748581E-04 -0.1885429E-03
  0.0000000E+00  0.0000000E+00  0.2550000E+00  0.1661133E-03  0.6938117E-04  0.1711133E-03  0.1691437E-03  0.5638139E-04 -0.1841252E-03
  0.0000000E+00  0.0000000E+00  0.2600000E+00  0.1654627E-03  0.6805793E-04  0.1704627E-03  0.1651740E-03  0.5505815E-04 -0.1788323E-03
  0.0000000E+00  0.0000000E+00  0.2650000E+00  0.1646902E-03  0.6649641E-04  0.1696902E-03  0.1604894E-03  0.5349663E-04 -0.1725862E-03
  0.0000000E+00  0.0000000E+00  0.2700000E+00  0.1637873E-03  0.6468422E-04  0.1687873E-03  0.1550528E-03  0.5168443E-04 -0.1653374E-03
  0.0000000E+00  0.0000000E+00  0.2750000E+00  0.1627495E-03  0.6261806E-04  0.1677495E-03  0.1488544E-03  0.4961826E-04 -0.1570727E-03
  0.0000000E+00  0.0000000E+00  0.2800000E+00  0.1615767E-03  0.6030481E-04  0.1665768E-03  0.1419146E-03  0.4730499E-04 -0.1478196E-03
  0.0000000E+00  0.0000000E+00  0.2850000E+00  0.1602738E-03  0.5776091E-04  0.1652738E-03  0.1342829E-03  0.4476107E-04 -0.1376439E-03
  0.0000000E+00  0.0000000E+00  0.2900000E+00  0.1588492E-03  0.5501036E-04  0.1638492E-03  0.1260312E-03  0.4201051E-04 -0.1266417E-03
  0.0000000E+00  0.0000000E+00  0.2950000E+00  0.1573141E-03  0.5208164E-04  0.1623141E-03  0.1172450E-03  0.3908177E-04 -0.1149267E-03
  0.0000000E+00  0.0000000E+00  0.3000000E+00  0.1556808E-03  0.4900438E-04  0.1606808E-03  0.1080132E-03  0.3600449E-04 -0.1026176E-03
  0.0000000E+00  0.0000000E+00  0.3050000E+00  0.1539613E-03  0.4580652E-04  0.1589613E-03  0.9841965E-04  0.3280662E-04 -0.8982610E-04
  0.0000000E+00  0.0000000E+00  0.3100000E+00  0.1521662E-03  0.4251240E-04  0.1571663E-03  0.8853729E-04  0.2951250E-04 -0.7664961E-04
  0.0000000E+00  0.0000000E+00  0.3150000E+00  0.1503047E-03  0.3914177E-04  0.1553047E-03  0.7842541E-04  0.2614187E-04 -0.6316709E-04
  0.0000000E+00  0.0000000E+00  0.3200000E+00  0.1483836E-03  0.3570958E-04  0.1533836E-03  0.6812885E-04  0.2270968E-04 -0.4943834E-04
  0.0000000E+00  0.0000000E+00  0.3250000E+00  0.1464080E-03  0.3222632E-04  0.1514080E-03  0.5767906E-04  0.1922642E-04 -0.3550528E-04
  0.0000000E+00  0.0000000E+00  0.3300000E+00  0.1443813E-03  0.2869858E-04  0.1493813E-03  0.4709583E-04  0.1569868E-04 -0.2139430E-04
  0.0000000E+00  0.0000000E+00  0.3350000E+00  0.1423057E-03  0.2512980E-04  0.1473057E-03  0.3638950E-04  0.1212990E-04 -0.7119200E-05
  0.0000000E+00  0.0000000E+00  0.3400000E+00  0.1400142E-03  0.2152103E-04  0.1450142E-03  0.2556320E-04  0.8521130E-05  0.7315881E-05
  0.0000000E+00  0.0000000E+00  0.3450000E+00  0.1600000E-04  0.1787305E-04  0.2100000E-04  0.1461925E-04  0.4873151E-05  0.2190780E-04
  0.0000000E+00  0.0000000E+00  0.3500000E+00  0.1600000E-04  0.1744554E-04  0.2100000E-04  0.1333671E-04  0.4445637E-05  0.2361785E-04
  0.0000000E+00  0.0000000E+00  0.3550000E+00  0.1600000E-04  0.1701972E-04  0.2100000E-04  0.1205925E-04  0.4019816E-05  0.2532114E-04
  0.0000000E+00  0.0000000E+00  0.3600000E+00  0.1600000E-04  0.1659550E-04  0.2100000E-04  0.1078660E-04  0.3595599E-05  0.2701800E-04
  0.0000000E+00  0.0000000E+00  0.3650000E+00  0.1600000E-04  0.1617275E-04  0.2100000E-04  0.9518348E-05  0.3172849E-05  0.2870900E-04
  0.0000000E+00  0.0000000E+00  0.3700000E+00  0.1600000E-04  0.1575125E-04  0.2100000E-04  0.8253862E-05  0.2751354E-05  0.3039498E-04
  0.0000000E+00  0.0000000E+00  0.3750000E+00  0.1600000E-04  0.1533070E-04  0.2100000E-04  0.6992195E-05  0.2330798E-05  0.3207721E-04
  0.0000000E+00  0.0000000E+00  0.3800000E+00  0.1600000E-04  0.1491062E-04  0.2100000E-04  0.5731966E-05  0.1910722E-05  0.3375751E-04
  0.0000000E+00  0.0000000E+00  0.3850000E+00  0.1600000E-04  0.1449036E-04  0.2100000E-04  0.4471184E-05  0.1490461E-05  0.3543855E-04
  0.0000000E+00  0.0000000E+00  0.3900000E+00  0.1600000E-04  0.1406898E-04  0.2100000E-04  0.3207043E-05  0.1069081E-05  0.3712408E-04
  0.0000000E+00  0.0000000E+00  0.3950000E+00  0.1600000E-04  0.1364519E-04  0.2100000E-04  0.1935659E-05  0.6452862E-06  0.3881926E-04
  0.0000000E+00  0.0000000E+00  0.4000000E+00  0.1600000E-04  0.1321722E-04  0.2100000E-04  0.6517689E-06  0.2173230E-06  0.4053111E-04
