title = "dataset weather"
variables = "x","y","z","pH","ionic strength", "C-Alk [eq/L]","NC-Alk [eq/L]","Alk [eq/L]","C-Alk [mg/L CaCO_3]","NC-Alk [mg/L CACO_3]","Alk [mg/L CaCO_3]","temperature"
zone t = "Master variables, T =  5.000E+00 years", i =   81, j =    1, k =    1,  f=point
  0.0000000E+00  0.0000000E+00  0.0000000E+00  0.9547618E+01  0.5673194E-03  0.0000000E+00  0.0000000E+00  0.0000000E+00  0.0000000E+00  0.0000000E+00  0.0000000E+00  0.2500000E+02
  0.0000000E+00  0.0000000E+00  0.5000000E-02  0.9547618E+01  0.5673193E-03  0.0000000E+00  0.0000000E+00  0.0000000E+00  0.0000000E+00  0.0000000E+00  0.0000000E+00  0.2500000E+02
  0.0000000E+00  0.0000000E+00  0.1000000E-01  0.9547618E+01  0.5673193E-03  0.0000000E+00  0.0000000E+00  0.0000000E+00  0.0000000E+00  0.0000000E+00  0.0000000E+00  0.2500000E+02
  0.0000000E+00  0.0000000E+00  0.1500000E-01  0.9547618E+01  0.5673193E-03  0.0000000E+00  0.0000000E+00  0.0000000E+00  0.0000000E+00  0.0000000E+00  0.0000000E+00  0.2500000E+02
  0.0000000E+00  0.0000000E+00  0.2000000E-01  0.9547618E+01  0.5673193E-03  0.0000000E+00  0.0000000E+00  0.0000000E+00  0.0000000E+00  0.0000000E+00  0.0000000E+00  0.2500000E+02
  0.0000000E+00  0.0000000E+00  0.2500000E-01  0.9547618E+01  0.5673192E-03  0.0000000E+00  0.0000000E+00  0.0000000E+00  0.0000000E+00  0.0000000E+00  0.0000000E+00  0.2500000E+02
  0.0000000E+00  0.0000000E+00  0.3000000E-01  0.9547618E+01  0.5673192E-03  0.0000000E+00  0.0000000E+00  0.0000000E+00  0.0000000E+00  0.0000000E+00  0.0000000E+00  0.2500000E+02
  0.0000000E+00  0.0000000E+00  0.3500000E-01  0.9547618E+01  0.5673191E-03  0.0000000E+00  0.0000000E+00  0.0000000E+00  0.0000000E+00  0.0000000E+00  0.0000000E+00  0.2500000E+02
  0.0000000E+00  0.0000000E+00  0.4000000E-01  0.9547618E+01  0.5673190E-03  0.0000000E+00  0.0000000E+00  0.0000000E+00  0.0000000E+00  0.0000000E+00  0.0000000E+00  0.2500000E+02
  0.0000000E+00  0.0000000E+00  0.4500000E-01  0.9547619E+01  0.5673189E-03  0.0000000E+00  0.0000000E+00  0.0000000E+00  0.0000000E+00  0.0000000E+00  0.0000000E+00  0.2500000E+02
  0.0000000E+00  0.0000000E+00  0.5000000E-01  0.9547619E+01  0.5673188E-03  0.0000000E+00  0.0000000E+00  0.0000000E+00  0.0000000E+00  0.0000000E+00  0.0000000E+00  0.2500000E+02
  0.0000000E+00  0.0000000E+00  0.5500000E-01  0.9547619E+01  0.5673186E-03  0.0000000E+00  0.0000000E+00  0.0000000E+00  0.0000000E+00  0.0000000E+00  0.0000000E+00  0.2500000E+02
  0.0000000E+00  0.0000000E+00  0.6000000E-01  0.9547619E+01  0.5673184E-03  0.0000000E+00  0.0000000E+00  0.0000000E+00  0.0000000E+00  0.0000000E+00  0.0000000E+00  0.2500000E+02
  0.0000000E+00  0.0000000E+00  0.6500000E-01  0.9547619E+01  0.5673181E-03  0.0000000E+00  0.0000000E+00  0.0000000E+00  0.0000000E+00  0.0000000E+00  0.0000000E+00  0.2500000E+02
  0.0000000E+00  0.0000000E+00  0.7000000E-01  0.9547620E+01  0.5673178E-03  0.0000000E+00  0.0000000E+00  0.0000000E+00  0.0000000E+00  0.0000000E+00  0.0000000E+00  0.2500000E+02
  0.0000000E+00  0.0000000E+00  0.7500000E-01  0.9547620E+01  0.5673173E-03  0.0000000E+00  0.0000000E+00  0.0000000E+00  0.0000000E+00  0.0000000E+00  0.0000000E+00  0.2500000E+02
  0.0000000E+00  0.0000000E+00  0.8000000E-01  0.9547621E+01  0.5673167E-03  0.0000000E+00  0.0000000E+00  0.0000000E+00  0.0000000E+00  0.0000000E+00  0.0000000E+00  0.2500000E+02
  0.0000000E+00  0.0000000E+00  0.8500000E-01  0.9547622E+01  0.5673160E-03  0.0000000E+00  0.0000000E+00  0.0000000E+00  0.0000000E+00  0.0000000E+00  0.0000000E+00  0.2500000E+02
  0.0000000E+00  0.0000000E+00  0.9000000E-01  0.9547623E+01  0.5673150E-03  0.0000000E+00  0.0000000E+00  0.0000000E+00  0.0000000E+00  0.0000000E+00  0.0000000E+00  0.2500000E+02
  0.0000000E+00  0.0000000E+00  0.9500000E-01  0.9547625E+01  0.5673137E-03  0.0000000E+00  0.0000000E+00  0.0000000E+00  0.0000000E+00  0.0000000E+00  0.0000000E+00  0.2500000E+02
  0.0000000E+00  0.0000000E+00  0.1000000E+00  0.9547627E+01  0.5673121E-03  0.0000000E+00  0.0000000E+00  0.0000000E+00  0.0000000E+00  0.0000000E+00  0.0000000E+00  0.2500000E+02
  0.0000000E+00  0.0000000E+00  0.1050000E+00  0.9547629E+01  0.5673101E-03  0.0000000E+00  0.0000000E+00  0.0000000E+00  0.0000000E+00  0.0000000E+00  0.0000000E+00  0.2500000E+02
  0.0000000E+00  0.0000000E+00  0.1100000E+00  0.9547632E+01  0.5673075E-03  0.0000000E+00  0.0000000E+00  0.0000000E+00  0.0000000E+00  0.0000000E+00  0.0000000E+00  0.2500000E+02
  0.0000000E+00  0.0000000E+00  0.1150000E+00  0.9547636E+01  0.5673042E-03  0.0000000E+00  0.0000000E+00  0.0000000E+00  0.0000000E+00  0.0000000E+00  0.0000000E+00  0.2500000E+02
  0.0000000E+00  0.0000000E+00  0.1200000E+00  0.9547641E+01  0.5673000E-03  0.0000000E+00  0.0000000E+00  0.0000000E+00  0.0000000E+00  0.0000000E+00  0.0000000E+00  0.2500000E+02
  0.0000000E+00  0.0000000E+00  0.1250000E+00  0.9547647E+01  0.5672946E-03  0.0000000E+00  0.0000000E+00  0.0000000E+00  0.0000000E+00  0.0000000E+00  0.0000000E+00  0.2500000E+02
  0.0000000E+00  0.0000000E+00  0.1300000E+00  0.9547656E+01  0.5672877E-03  0.0000000E+00  0.0000000E+00  0.0000000E+00  0.0000000E+00  0.0000000E+00  0.0000000E+00  0.2500000E+02
  0.0000000E+00  0.0000000E+00  0.1350000E+00  0.9547666E+01  0.5672789E-03  0.0000000E+00  0.0000000E+00  0.0000000E+00  0.0000000E+00  0.0000000E+00  0.0000000E+00  0.2500000E+02
  0.0000000E+00  0.0000000E+00  0.1400000E+00  0.9547679E+01  0.5672677E-03  0.0000000E+00  0.0000000E+00  0.0000000E+00  0.0000000E+00  0.0000000E+00  0.0000000E+00  0.2500000E+02
  0.0000000E+00  0.0000000E+00  0.1450000E+00  0.9547696E+01  0.5672535E-03  0.0000000E+00  0.0000000E+00  0.0000000E+00  0.0000000E+00  0.0000000E+00  0.0000000E+00  0.2500000E+02
  0.0000000E+00  0.0000000E+00  0.1500000E+00  0.9547718E+01  0.5672353E-03  0.0000000E+00  0.0000000E+00  0.0000000E+00  0.0000000E+00  0.0000000E+00  0.0000000E+00  0.2500000E+02
  0.0000000E+00  0.0000000E+00  0.1550000E+00  0.9547745E+01  0.5672121E-03  0.0000000E+00  0.0000000E+00  0.0000000E+00  0.0000000E+00  0.0000000E+00  0.0000000E+00  0.2500000E+02
  0.0000000E+00  0.0000000E+00  0.1600000E+00  0.9547780E+01  0.5671825E-03  0.0000000E+00  0.0000000E+00  0.0000000E+00  0.0000000E+00  0.0000000E+00  0.0000000E+00  0.2500000E+02
  0.0000000E+00  0.0000000E+00  0.1650000E+00  0.9547825E+01  0.5671447E-03  0.0000000E+00  0.0000000E+00  0.0000000E+00  0.0000000E+00  0.0000000E+00  0.0000000E+00  0.2500000E+02
  0.0000000E+00  0.0000000E+00  0.1700000E+00  0.9547882E+01  0.5670965E-03  0.0000000E+00  0.0000000E+00  0.0000000E+00  0.0000000E+00  0.0000000E+00  0.0000000E+00  0.2500000E+02
  0.0000000E+00  0.0000000E+00  0.1750000E+00  0.9547955E+01  0.5670349E-03  0.0000000E+00  0.0000000E+00  0.0000000E+00  0.0000000E+00  0.0000000E+00  0.0000000E+00  0.2500000E+02
  0.0000000E+00  0.0000000E+00  0.1800000E+00  0.9548048E+01  0.5669562E-03  0.0000000E+00  0.0000000E+00  0.0000000E+00  0.0000000E+00  0.0000000E+00  0.0000000E+00  0.2500000E+02
  0.0000000E+00  0.0000000E+00  0.1850000E+00  0.9548167E+01  0.5668556E-03  0.0000000E+00  0.0000000E+00  0.0000000E+00  0.0000000E+00  0.0000000E+00  0.0000000E+00  0.2500000E+02
  0.0000000E+00  0.0000000E+00  0.1900000E+00  0.9548319E+01  0.5667268E-03  0.0000000E+00  0.0000000E+00  0.0000000E+00  0.0000000E+00  0.0000000E+00  0.0000000E+00  0.2500000E+02
  0.0000000E+00  0.0000000E+00  0.1950000E+00  0.9548515E+01  0.5665622E-03  0.0000000E+00  0.0000000E+00  0.0000000E+00  0.0000000E+00  0.0000000E+00  0.0000000E+00  0.2500000E+02
  0.0000000E+00  0.0000000E+00  0.2000000E+00  0.9548764E+01  0.5663514E-03  0.0000000E+00  0.0000000E+00  0.0000000E+00  0.0000000E+00  0.0000000E+00  0.0000000E+00  0.2500000E+02
  0.0000000E+00  0.0000000E+00  0.2050000E+00  0.9549084E+01  0.5660819E-03  0.0000000E+00  0.0000000E+00  0.0000000E+00  0.0000000E+00  0.0000000E+00  0.0000000E+00  0.2500000E+02
  0.0000000E+00  0.0000000E+00  0.2100000E+00  0.9549493E+01  0.5657374E-03  0.0000000E+00  0.0000000E+00  0.0000000E+00  0.0000000E+00  0.0000000E+00  0.0000000E+00  0.2500000E+02
  0.0000000E+00  0.0000000E+00  0.2150000E+00  0.9550016E+01  0.5652975E-03  0.0000000E+00  0.0000000E+00  0.0000000E+00  0.0000000E+00  0.0000000E+00  0.0000000E+00  0.2500000E+02
  0.0000000E+00  0.0000000E+00  0.2200000E+00  0.9550683E+01  0.5647370E-03  0.0000000E+00  0.0000000E+00  0.0000000E+00  0.0000000E+00  0.0000000E+00  0.0000000E+00  0.2500000E+02
  0.0000000E+00  0.0000000E+00  0.2250000E+00  0.9551532E+01  0.5640247E-03  0.0000000E+00  0.0000000E+00  0.0000000E+00  0.0000000E+00  0.0000000E+00  0.0000000E+00  0.2500000E+02
  0.0000000E+00  0.0000000E+00  0.2300000E+00  0.9552609E+01  0.5631230E-03  0.0000000E+00  0.0000000E+00  0.0000000E+00  0.0000000E+00  0.0000000E+00  0.0000000E+00  0.2500000E+02
  0.0000000E+00  0.0000000E+00  0.2350000E+00  0.9553969E+01  0.5619868E-03  0.0000000E+00  0.0000000E+00  0.0000000E+00  0.0000000E+00  0.0000000E+00  0.0000000E+00  0.2500000E+02
  0.0000000E+00  0.0000000E+00  0.2400000E+00  0.9555677E+01  0.5605643E-03  0.0000000E+00  0.0000000E+00  0.0000000E+00  0.0000000E+00  0.0000000E+00  0.0000000E+00  0.2500000E+02
  0.0000000E+00  0.0000000E+00  0.2450000E+00  0.9557808E+01  0.5587969E-03  0.0000000E+00  0.0000000E+00  0.0000000E+00  0.0000000E+00  0.0000000E+00  0.0000000E+00  0.2500000E+02
  0.0000000E+00  0.0000000E+00  0.2500000E+00  0.9560444E+01  0.5566217E-03  0.0000000E+00  0.0000000E+00  0.0000000E+00  0.0000000E+00  0.0000000E+00  0.0000000E+00  0.2500000E+02
  0.0000000E+00  0.0000000E+00  0.2550000E+00  0.9563671E+01  0.5539740E-03  0.0000000E+00  0.0000000E+00  0.0000000E+00  0.0000000E+00  0.0000000E+00  0.0000000E+00  0.2500000E+02
  0.0000000E+00  0.0000000E+00  0.2600000E+00  0.9567577E+01  0.5507930E-03  0.0000000E+00  0.0000000E+00  0.0000000E+00  0.0000000E+00  0.0000000E+00  0.0000000E+00  0.2500000E+02
  0.0000000E+00  0.0000000E+00  0.2650000E+00  0.9572243E+01  0.5470268E-03  0.0000000E+00  0.0000000E+00  0.0000000E+00  0.0000000E+00  0.0000000E+00  0.0000000E+00  0.2500000E+02
  0.0000000E+00  0.0000000E+00  0.2700000E+00  0.9577736E+01  0.5426389E-03  0.0000000E+00  0.0000000E+00  0.0000000E+00  0.0000000E+00  0.0000000E+00  0.0000000E+00  0.2500000E+02
  0.0000000E+00  0.0000000E+00  0.2750000E+00  0.9584103E+01  0.5376137E-03  0.0000000E+00  0.0000000E+00  0.0000000E+00  0.0000000E+00  0.0000000E+00  0.0000000E+00  0.2500000E+02
  0.0000000E+00  0.0000000E+00  0.2800000E+00  0.9591367E+01  0.5319591E-03  0.0000000E+00  0.0000000E+00  0.0000000E+00  0.0000000E+00  0.0000000E+00  0.0000000E+00  0.2500000E+02
  0.0000000E+00  0.0000000E+00  0.2850000E+00  0.9599528E+01  0.5257057E-03  0.0000000E+00  0.0000000E+00  0.0000000E+00  0.0000000E+00  0.0000000E+00  0.0000000E+00  0.2500000E+02
  0.0000000E+00  0.0000000E+00  0.2900000E+00  0.9608559E+01  0.5189029E-03  0.0000000E+00  0.0000000E+00  0.0000000E+00  0.0000000E+00  0.0000000E+00  0.0000000E+00  0.2500000E+02
  0.0000000E+00  0.0000000E+00  0.2950000E+00  0.9618424E+01  0.5116119E-03  0.0000000E+00  0.0000000E+00  0.0000000E+00  0.0000000E+00  0.0000000E+00  0.0000000E+00  0.2500000E+02
  0.0000000E+00  0.0000000E+00  0.3000000E+00  0.9629075E+01  0.5038983E-03  0.0000000E+00  0.0000000E+00  0.0000000E+00  0.0000000E+00  0.0000000E+00  0.0000000E+00  0.2500000E+02
  0.0000000E+00  0.0000000E+00  0.3050000E+00  0.9640466E+01  0.4958250E-03  0.0000000E+00  0.0000000E+00  0.0000000E+00  0.0000000E+00  0.0000000E+00  0.0000000E+00  0.2500000E+02
  0.0000000E+00  0.0000000E+00  0.3100000E+00  0.9652559E+01  0.4874479E-03  0.0000000E+00  0.0000000E+00  0.0000000E+00  0.0000000E+00  0.0000000E+00  0.0000000E+00  0.2500000E+02
  0.0000000E+00  0.0000000E+00  0.3150000E+00  0.9665326E+01  0.4788133E-03  0.0000000E+00  0.0000000E+00  0.0000000E+00  0.0000000E+00  0.0000000E+00  0.0000000E+00  0.2500000E+02
  0.0000000E+00  0.0000000E+00  0.3200000E+00  0.9678752E+01  0.4699567E-03  0.0000000E+00  0.0000000E+00  0.0000000E+00  0.0000000E+00  0.0000000E+00  0.0000000E+00  0.2500000E+02
  0.0000000E+00  0.0000000E+00  0.3250000E+00  0.9692835E+01  0.4609041E-03  0.0000000E+00  0.0000000E+00  0.0000000E+00  0.0000000E+00  0.0000000E+00  0.0000000E+00  0.2500000E+02
  0.0000000E+00  0.0000000E+00  0.3300000E+00  0.9707586E+01  0.4516728E-03  0.0000000E+00  0.0000000E+00  0.0000000E+00  0.0000000E+00  0.0000000E+00  0.0000000E+00  0.2500000E+02
  0.0000000E+00  0.0000000E+00  0.3350000E+00  0.9723026E+01  0.4422733E-03  0.0000000E+00  0.0000000E+00  0.0000000E+00  0.0000000E+00  0.0000000E+00  0.0000000E+00  0.2500000E+02
  0.0000000E+00  0.0000000E+00  0.3400000E+00  0.9738602E+01  0.4321961E-03  0.0000000E+00  0.0000000E+00  0.0000000E+00  0.0000000E+00  0.0000000E+00  0.0000000E+00  0.2500000E+02
  0.0000000E+00  0.0000000E+00  0.3450000E+00  0.6145748E+01  0.4795082E-04  0.0000000E+00  0.0000000E+00  0.0000000E+00  0.0000000E+00  0.0000000E+00  0.0000000E+00  0.2500000E+02
  0.0000000E+00  0.0000000E+00  0.3500000E+00  0.6119017E+01  0.4743327E-04  0.0000000E+00  0.0000000E+00  0.0000000E+00  0.0000000E+00  0.0000000E+00  0.0000000E+00  0.2500000E+02
  0.0000000E+00  0.0000000E+00  0.3550000E+00  0.6089780E+01  0.4690874E-04  0.0000000E+00  0.0000000E+00  0.0000000E+00  0.0000000E+00  0.0000000E+00  0.0000000E+00  0.2500000E+02
  0.0000000E+00  0.0000000E+00  0.3600000E+00  0.6057651E+01  0.4637623E-04  0.0000000E+00  0.0000000E+00  0.0000000E+00  0.0000000E+00  0.0000000E+00  0.0000000E+00  0.2500000E+02
  0.0000000E+00  0.0000000E+00  0.3650000E+00  0.6022183E+01  0.4583470E-04  0.0000000E+00  0.0000000E+00  0.0000000E+00  0.0000000E+00  0.0000000E+00  0.0000000E+00  0.2500000E+02
  0.0000000E+00  0.0000000E+00  0.3700000E+00  0.5982869E+01  0.4528313E-04  0.0000000E+00  0.0000000E+00  0.0000000E+00  0.0000000E+00  0.0000000E+00  0.0000000E+00  0.2500000E+02
  0.0000000E+00  0.0000000E+00  0.3750000E+00  0.5939148E+01  0.4472053E-04  0.0000000E+00  0.0000000E+00  0.0000000E+00  0.0000000E+00  0.0000000E+00  0.0000000E+00  0.2500000E+02
  0.0000000E+00  0.0000000E+00  0.3800000E+00  0.5890424E+01  0.4414597E-04  0.0000000E+00  0.0000000E+00  0.0000000E+00  0.0000000E+00  0.0000000E+00  0.0000000E+00  0.2500000E+02
  0.0000000E+00  0.0000000E+00  0.3850000E+00  0.5836100E+01  0.4355844E-04  0.0000000E+00  0.0000000E+00  0.0000000E+00  0.0000000E+00  0.0000000E+00  0.0000000E+00  0.2500000E+02
  0.0000000E+00  0.0000000E+00  0.3900000E+00  0.5775635E+01  0.4295645E-04  0.0000000E+00  0.0000000E+00  0.0000000E+00  0.0000000E+00  0.0000000E+00  0.0000000E+00  0.2500000E+02
  0.0000000E+00  0.0000000E+00  0.3950000E+00  0.5708602E+01  0.4233699E-04  0.0000000E+00  0.0000000E+00  0.0000000E+00  0.0000000E+00  0.0000000E+00  0.0000000E+00  0.2500000E+02
  0.0000000E+00  0.0000000E+00  0.4000000E+00  0.5634770E+01  0.4169368E-04  0.0000000E+00  0.0000000E+00  0.0000000E+00  0.0000000E+00  0.0000000E+00  0.0000000E+00  0.2500000E+02
