title = "dataset weather"
variables = "x", "y", "z","calcite_1","albite-ph_1","albite-ph_2"
zone t = "Diss.-prec. rates, T =  5.000E+00 years", i =   81, j =    1, k =    1,  f=point
  0.0000000E+00  0.0000000E+00  0.0000000E+00 -0.2230653E-12 -0.3848227E-15 -0.4654563E-12
  0.0000000E+00  0.0000000E+00  0.5000000E-02 -0.2542020E-12 -0.4385280E-15 -0.5304148E-12
  0.0000000E+00  0.0000000E+00  0.1000000E-01 -0.3252352E-12 -0.5609926E-15 -0.6785399E-12
  0.0000000E+00  0.0000000E+00  0.1500000E-01 -0.4161577E-12 -0.7178094E-15 -0.8682154E-12
  0.0000000E+00  0.0000000E+00  0.2000000E-01 -0.5326073E-12 -0.9186694E-15 -0.1111163E-11
  0.0000000E+00  0.0000000E+00  0.2500000E-01 -0.6817411E-12 -0.1176008E-14 -0.1422423E-11
  0.0000000E+00  0.0000000E+00  0.3000000E-01 -0.8728516E-12 -0.1505781E-14 -0.1821295E-11
  0.0000000E+00  0.0000000E+00  0.3500000E-01 -0.1117751E-11 -0.1928457E-14 -0.2332536E-11
  0.0000000E+00  0.0000000E+00  0.4000000E-01 -0.1431676E-11 -0.2470286E-14 -0.2987898E-11
  0.0000000E+00  0.0000000E+00  0.4500000E-01 -0.1834089E-11 -0.3164920E-14 -0.3828083E-11
  0.0000000E+00  0.0000000E+00  0.5000000E-01 -0.2350020E-11 -0.4055481E-14 -0.4905250E-11
  0.0000000E+00  0.0000000E+00  0.5500000E-01 -0.3011429E-11 -0.5197197E-14 -0.6286198E-11
  0.0000000E+00  0.0000000E+00  0.6000000E-01 -0.3859305E-11 -0.6660753E-14 -0.8056427E-11
  0.0000000E+00  0.0000000E+00  0.6500000E-01 -0.4946061E-11 -0.8536569E-14 -0.1032530E-10
  0.0000000E+00  0.0000000E+00  0.7000000E-01 -0.6338676E-11 -0.1094023E-13 -0.1323262E-10
  0.0000000E+00  0.0000000E+00  0.7500000E-01 -0.8122759E-11 -0.1401937E-13 -0.1695698E-10
  0.0000000E+00  0.0000000E+00  0.8000000E-01 -0.1040757E-10 -0.1796247E-13 -0.2172635E-10
  0.0000000E+00  0.0000000E+00  0.8500000E-01 -0.1333253E-10 -0.2301000E-13 -0.2783159E-10
  0.0000000E+00  0.0000000E+00  0.9000000E-01 -0.1707541E-10 -0.2946852E-13 -0.3564353E-10
  0.0000000E+00  0.0000000E+00  0.9500000E-01 -0.2186278E-10 -0.3772873E-13 -0.4563475E-10
  0.0000000E+00  0.0000000E+00  0.1000000E+00 -0.2798326E-10 -0.4828826E-13 -0.5840722E-10
  0.0000000E+00  0.0000000E+00  0.1050000E+00 -0.3580435E-10 -0.6178075E-13 -0.7472743E-10
  0.0000000E+00  0.0000000E+00  0.1100000E+00 -0.4579388E-10 -0.7901282E-13 -0.9557117E-10
  0.0000000E+00  0.0000000E+00  0.1150000E+00 -0.5854747E-10 -0.1010112E-12 -0.1221805E-09
  0.0000000E+00  0.0000000E+00  0.1200000E+00 -0.7482317E-10 -0.1290826E-12 -0.1561363E-09
  0.0000000E+00  0.0000000E+00  0.1250000E+00 -0.9558599E-10 -0.1648904E-12 -0.1994513E-09
  0.0000000E+00  0.0000000E+00  0.1300000E+00 -0.1220648E-09 -0.2105526E-12 -0.2546880E-09
  0.0000000E+00  0.0000000E+00  0.1350000E+00 -0.1558248E-09 -0.2687664E-12 -0.3251105E-09
  0.0000000E+00  0.0000000E+00  0.1400000E+00 -0.1988606E-09 -0.3429687E-12 -0.4148786E-09
  0.0000000E+00  0.0000000E+00  0.1450000E+00 -0.2537154E-09 -0.4375403E-12 -0.5292952E-09
  0.0000000E+00  0.0000000E+00  0.1500000E+00 -0.3236332E-09 -0.5580684E-12 -0.6751251E-09
  0.0000000E+00  0.0000000E+00  0.1550000E+00 -0.4127549E-09 -0.7116813E-12 -0.8610019E-09
  0.0000000E+00  0.0000000E+00  0.1600000E+00 -0.5263683E-09 -0.9074773E-12 -0.1097948E-08
  0.0000000E+00  0.0000000E+00  0.1650000E+00 -0.6712275E-09 -0.1157069E-11 -0.1400042E-08
  0.0000000E+00  0.0000000E+00  0.1700000E+00 -0.8559604E-09 -0.1475278E-11 -0.1785256E-08
  0.0000000E+00  0.0000000E+00  0.1750000E+00 -0.1091584E-08 -0.1881003E-11 -0.2276531E-08
  0.0000000E+00  0.0000000E+00  0.1800000E+00 -0.1392153E-08 -0.2398313E-11 -0.2903110E-08
  0.0000000E+00  0.0000000E+00  0.1850000E+00 -0.1775564E-08 -0.3057787E-11 -0.3702193E-08
  0.0000000E+00  0.0000000E+00  0.1900000E+00 -0.2264546E-08 -0.3898138E-11 -0.4720951E-08
  0.0000000E+00  0.0000000E+00  0.1950000E+00 -0.2887837E-08 -0.4968122E-11 -0.6018923E-08
  0.0000000E+00  0.0000000E+00  0.2000000E+00 -0.3681565E-08 -0.6328693E-11 -0.7670752E-08
  0.0000000E+00  0.0000000E+00  0.2050000E+00 -0.4690764E-08 -0.8055287E-11 -0.9769166E-08
  0.0000000E+00  0.0000000E+00  0.2100000E+00 -0.5970939E-08 -0.1023997E-10 -0.1242792E-07
  0.0000000E+00  0.0000000E+00  0.2150000E+00 -0.7589456E-08 -0.1299301E-10 -0.1578419E-07
  0.0000000E+00  0.0000000E+00  0.2200000E+00 -0.9626397E-08 -0.1644306E-10 -0.1999964E-07
  0.0000000E+00  0.0000000E+00  0.2250000E+00 -0.1217431E-07 -0.2073491E-10 -0.2525878E-07
  0.0000000E+00  0.0000000E+00  0.2300000E+00 -0.1533602E-07 -0.2602313E-10 -0.3176291E-07
  0.0000000E+00  0.0000000E+00  0.2350000E+00 -0.1921952E-07 -0.3245986E-10 -0.3971750E-07
  0.0000000E+00  0.0000000E+00  0.2400000E+00 -0.2392871E-07 -0.4017499E-10 -0.4931064E-07
  0.0000000E+00  0.0000000E+00  0.2450000E+00 -0.2954941E-07 -0.4924796E-10 -0.6068154E-07
  0.0000000E+00  0.0000000E+00  0.2500000E+00 -0.3613052E-07 -0.5967265E-10 -0.7387984E-07
  0.0000000E+00  0.0000000E+00  0.2550000E+00 -0.4366249E-07 -0.7132088E-10 -0.8882127E-07
  0.0000000E+00  0.0000000E+00  0.2600000E+00 -0.5205759E-07 -0.8391446E-10 -0.1052502E-06
  0.0000000E+00  0.0000000E+00  0.2650000E+00 -0.6113869E-07 -0.9701950E-10 -0.1227245E-06
  0.0000000E+00  0.0000000E+00  0.2700000E+00 -0.7064409E-07 -0.1100750E-09 -0.1406371E-06
  0.0000000E+00  0.0000000E+00  0.2750000E+00 -0.8025290E-07 -0.1224592E-09 -0.1582825E-06
  0.0000000E+00  0.0000000E+00  0.2800000E+00 -0.8962839E-07 -0.1335826E-09 -0.1749566E-06
  0.0000000E+00  0.0000000E+00  0.2850000E+00 -0.9846923E-07 -0.1429815E-09 -0.1900669E-06
  0.0000000E+00  0.0000000E+00  0.2900000E+00 -0.1065535E-06 -0.1503835E-09 -0.2032180E-06
  0.0000000E+00  0.0000000E+00  0.2950000E+00 -0.1137631E-06 -0.1557271E-09 -0.2142492E-06
  0.0000000E+00  0.0000000E+00  0.3000000E+00 -0.1200837E-06 -0.1591343E-09 -0.2232198E-06
  0.0000000E+00  0.0000000E+00  0.3050000E+00 -0.1255857E-06 -0.1608540E-09 -0.2303563E-06
  0.0000000E+00  0.0000000E+00  0.3100000E+00 -0.1303941E-06 -0.1611978E-09 -0.2359831E-06
  0.0000000E+00  0.0000000E+00  0.3150000E+00 -0.1346584E-06 -0.1604845E-09 -0.2404590E-06
  0.0000000E+00  0.0000000E+00  0.3200000E+00 -0.1385270E-06 -0.1590025E-09 -0.2441284E-06
  0.0000000E+00  0.0000000E+00  0.3250000E+00 -0.1421301E-06 -0.1569889E-09 -0.2472914E-06
  0.0000000E+00  0.0000000E+00  0.3300000E+00 -0.1455739E-06 -0.1546239E-09 -0.2501898E-06
  0.0000000E+00  0.0000000E+00  0.3350000E+00 -0.1607145E-06 -0.1520333E-09 -0.2530052E-06
  0.0000000E+00  0.0000000E+00  0.3400000E+00 -0.8100863E-05 -0.1493958E-09 -0.2557608E-06
  0.0000000E+00  0.0000000E+00  0.3450000E+00  0.0000000E+00 -0.8608722E-08 -0.2138353E-07
  0.0000000E+00  0.0000000E+00  0.3500000E+00  0.0000000E+00 -0.8874970E-08 -0.2099860E-07
  0.0000000E+00  0.0000000E+00  0.3550000E+00  0.0000000E+00 -0.9175598E-08 -0.2058545E-07
  0.0000000E+00  0.0000000E+00  0.3600000E+00  0.0000000E+00 -0.9517633E-08 -0.2014062E-07
  0.0000000E+00  0.0000000E+00  0.3650000E+00  0.0000000E+00 -0.9909873E-08 -0.1966041E-07
  0.0000000E+00  0.0000000E+00  0.3700000E+00  0.0000000E+00 -0.1036334E-07 -0.1914107E-07
  0.0000000E+00  0.0000000E+00  0.3750000E+00  0.0000000E+00 -0.1089176E-07 -0.1857910E-07
  0.0000000E+00  0.0000000E+00  0.3800000E+00  0.0000000E+00 -0.1151211E-07 -0.1797172E-07
  0.0000000E+00  0.0000000E+00  0.3850000E+00  0.0000000E+00 -0.1224509E-07 -0.1731735E-07
  0.0000000E+00  0.0000000E+00  0.3900000E+00  0.0000000E+00 -0.1311551E-07 -0.1661640E-07
  0.0000000E+00  0.0000000E+00  0.3950000E+00  0.0000000E+00 -0.1415250E-07 -0.1587190E-07
  0.0000000E+00  0.0000000E+00  0.4000000E+00  0.0000000E+00 -0.1538933E-07 -0.1508994E-07
