title = "dataset weather"
variables = "x", "y", "z","calcite","albite-ph","porosity"
zone t = "phi_i, T =  5.000E+00 years", i =   81, j =    1, k =    1,  f=point
  0.0000000E+00  0.0000000E+00  0.0000000E+00  0.4804086E-04  0.4997829E-02  0.9949541E+00
  0.0000000E+00  0.0000000E+00  0.5000000E-02  0.4804086E-04  0.4997829E-02  0.9949541E+00
  0.0000000E+00  0.0000000E+00  0.1000000E-01  0.4804085E-04  0.4997829E-02  0.9949541E+00
  0.0000000E+00  0.0000000E+00  0.1500000E-01  0.4804085E-04  0.4997829E-02  0.9949541E+00
  0.0000000E+00  0.0000000E+00  0.2000000E-01  0.4804085E-04  0.4997829E-02  0.9949541E+00
  0.0000000E+00  0.0000000E+00  0.2500000E-01  0.4804085E-04  0.4997829E-02  0.9949541E+00
  0.0000000E+00  0.0000000E+00  0.3000000E-01  0.4804084E-04  0.4997829E-02  0.9949541E+00
  0.0000000E+00  0.0000000E+00  0.3500000E-01  0.4804084E-04  0.4997829E-02  0.9949541E+00
  0.0000000E+00  0.0000000E+00  0.4000000E-01  0.4804083E-04  0.4997829E-02  0.9949541E+00
  0.0000000E+00  0.0000000E+00  0.4500000E-01  0.4804082E-04  0.4997829E-02  0.9949541E+00
  0.0000000E+00  0.0000000E+00  0.5000000E-01  0.4804081E-04  0.4997829E-02  0.9949541E+00
  0.0000000E+00  0.0000000E+00  0.5500000E-01  0.4804080E-04  0.4997829E-02  0.9949541E+00
  0.0000000E+00  0.0000000E+00  0.6000000E-01  0.4804078E-04  0.4997829E-02  0.9949541E+00
  0.0000000E+00  0.0000000E+00  0.6500000E-01  0.4804076E-04  0.4997829E-02  0.9949541E+00
  0.0000000E+00  0.0000000E+00  0.7000000E-01  0.4804073E-04  0.4997829E-02  0.9949541E+00
  0.0000000E+00  0.0000000E+00  0.7500000E-01  0.4804069E-04  0.4997828E-02  0.9949541E+00
  0.0000000E+00  0.0000000E+00  0.8000000E-01  0.4804064E-04  0.4997828E-02  0.9949541E+00
  0.0000000E+00  0.0000000E+00  0.8500000E-01  0.4804058E-04  0.4997828E-02  0.9949541E+00
  0.0000000E+00  0.0000000E+00  0.9000000E-01  0.4804050E-04  0.4997827E-02  0.9949541E+00
  0.0000000E+00  0.0000000E+00  0.9500000E-01  0.4804040E-04  0.4997827E-02  0.9949541E+00
  0.0000000E+00  0.0000000E+00  0.1000000E+00  0.4804028E-04  0.4997826E-02  0.9949541E+00
  0.0000000E+00  0.0000000E+00  0.1050000E+00  0.4804011E-04  0.4997825E-02  0.9949541E+00
  0.0000000E+00  0.0000000E+00  0.1100000E+00  0.4803990E-04  0.4997824E-02  0.9949541E+00
  0.0000000E+00  0.0000000E+00  0.1150000E+00  0.4803963E-04  0.4997822E-02  0.9949541E+00
  0.0000000E+00  0.0000000E+00  0.1200000E+00  0.4803929E-04  0.4997820E-02  0.9949541E+00
  0.0000000E+00  0.0000000E+00  0.1250000E+00  0.4803885E-04  0.4997818E-02  0.9949541E+00
  0.0000000E+00  0.0000000E+00  0.1300000E+00  0.4803829E-04  0.4997814E-02  0.9949541E+00
  0.0000000E+00  0.0000000E+00  0.1350000E+00  0.4803757E-04  0.4997810E-02  0.9949542E+00
  0.0000000E+00  0.0000000E+00  0.1400000E+00  0.4803665E-04  0.4997805E-02  0.9949542E+00
  0.0000000E+00  0.0000000E+00  0.1450000E+00  0.4803547E-04  0.4997798E-02  0.9949542E+00
  0.0000000E+00  0.0000000E+00  0.1500000E+00  0.4803396E-04  0.4997789E-02  0.9949542E+00
  0.0000000E+00  0.0000000E+00  0.1550000E+00  0.4803203E-04  0.4997777E-02  0.9949542E+00
  0.0000000E+00  0.0000000E+00  0.1600000E+00  0.4802956E-04  0.4997763E-02  0.9949542E+00
  0.0000000E+00  0.0000000E+00  0.1650000E+00  0.4802640E-04  0.4997744E-02  0.9949542E+00
  0.0000000E+00  0.0000000E+00  0.1700000E+00  0.4802236E-04  0.4997721E-02  0.9949543E+00
  0.0000000E+00  0.0000000E+00  0.1750000E+00  0.4801720E-04  0.4997690E-02  0.9949543E+00
  0.0000000E+00  0.0000000E+00  0.1800000E+00  0.4801061E-04  0.4997651E-02  0.9949543E+00
  0.0000000E+00  0.0000000E+00  0.1850000E+00  0.4800220E-04  0.4997602E-02  0.9949544E+00
  0.0000000E+00  0.0000000E+00  0.1900000E+00  0.4799146E-04  0.4997539E-02  0.9949545E+00
  0.0000000E+00  0.0000000E+00  0.1950000E+00  0.4797776E-04  0.4997458E-02  0.9949546E+00
  0.0000000E+00  0.0000000E+00  0.2000000E+00  0.4796031E-04  0.4997356E-02  0.9949547E+00
  0.0000000E+00  0.0000000E+00  0.2050000E+00  0.4793811E-04  0.4997225E-02  0.9949548E+00
  0.0000000E+00  0.0000000E+00  0.2100000E+00  0.4790990E-04  0.4997060E-02  0.9949550E+00
  0.0000000E+00  0.0000000E+00  0.2150000E+00  0.4787414E-04  0.4996850E-02  0.9949553E+00
  0.0000000E+00  0.0000000E+00  0.2200000E+00  0.4782891E-04  0.4996585E-02  0.9949556E+00
  0.0000000E+00  0.0000000E+00  0.2250000E+00  0.4777189E-04  0.4996252E-02  0.9949560E+00
  0.0000000E+00  0.0000000E+00  0.2300000E+00  0.4770029E-04  0.4995834E-02  0.9949565E+00
  0.0000000E+00  0.0000000E+00  0.2350000E+00  0.4761081E-04  0.4995313E-02  0.9949571E+00
  0.0000000E+00  0.0000000E+00  0.2400000E+00  0.4749970E-04  0.4994667E-02  0.9949578E+00
  0.0000000E+00  0.0000000E+00  0.2450000E+00  0.4736274E-04  0.4993873E-02  0.9949588E+00
  0.0000000E+00  0.0000000E+00  0.2500000E+00  0.4719545E-04  0.4992908E-02  0.9949599E+00
  0.0000000E+00  0.0000000E+00  0.2550000E+00  0.4699333E-04  0.4991748E-02  0.9949613E+00
  0.0000000E+00  0.0000000E+00  0.2600000E+00  0.4675223E-04  0.4990373E-02  0.9949629E+00
  0.0000000E+00  0.0000000E+00  0.2650000E+00  0.4646886E-04  0.4988767E-02  0.9949648E+00
  0.0000000E+00  0.0000000E+00  0.2700000E+00  0.4614130E-04  0.4986928E-02  0.9949669E+00
  0.0000000E+00  0.0000000E+00  0.2750000E+00  0.4576957E-04  0.4984861E-02  0.9949694E+00
  0.0000000E+00  0.0000000E+00  0.2800000E+00  0.4535591E-04  0.4982589E-02  0.9949721E+00
  0.0000000E+00  0.0000000E+00  0.2850000E+00  0.4490501E-04  0.4980145E-02  0.9949749E+00
  0.0000000E+00  0.0000000E+00  0.2900000E+00  0.4442370E-04  0.4977578E-02  0.9949780E+00
  0.0000000E+00  0.0000000E+00  0.2950000E+00  0.4392062E-04  0.4974943E-02  0.9949811E+00
  0.0000000E+00  0.0000000E+00  0.3000000E+00  0.4340544E-04  0.4972299E-02  0.9949843E+00
  0.0000000E+00  0.0000000E+00  0.3050000E+00  0.4288823E-04  0.4969708E-02  0.9949874E+00
  0.0000000E+00  0.0000000E+00  0.3100000E+00  0.4237865E-04  0.4967226E-02  0.9949904E+00
  0.0000000E+00  0.0000000E+00  0.3150000E+00  0.4188532E-04  0.4964899E-02  0.9949932E+00
  0.0000000E+00  0.0000000E+00  0.3200000E+00  0.4141528E-04  0.4962764E-02  0.9949958E+00
  0.0000000E+00  0.0000000E+00  0.3250000E+00  0.4097351E-04  0.4960843E-02  0.9949982E+00
  0.0000000E+00  0.0000000E+00  0.3300000E+00  0.4056273E-04  0.4959144E-02  0.9950003E+00
  0.0000000E+00  0.0000000E+00  0.3350000E+00  0.4016035E-04  0.4957662E-02  0.9950022E+00
  0.0000000E+00  0.0000000E+00  0.3400000E+00  0.6377980E-05  0.4956376E-02  0.9950372E+00
  0.0000000E+00  0.0000000E+00  0.3450000E+00  0.9608805E-07  0.4957732E-02  0.9950422E+00
  0.0000000E+00  0.0000000E+00  0.3500000E+00  0.9608805E-07  0.4959935E-02  0.9950400E+00
  0.0000000E+00  0.0000000E+00  0.3550000E+00  0.9608805E-07  0.4962337E-02  0.9950376E+00
  0.0000000E+00  0.0000000E+00  0.3600000E+00  0.9608805E-07  0.4964919E-02  0.9950350E+00
  0.0000000E+00  0.0000000E+00  0.3650000E+00  0.9608805E-07  0.4967655E-02  0.9950322E+00
  0.0000000E+00  0.0000000E+00  0.3700000E+00  0.9608805E-07  0.4970532E-02  0.9950294E+00
  0.0000000E+00  0.0000000E+00  0.3750000E+00  0.9608805E-07  0.4973533E-02  0.9950264E+00
  0.0000000E+00  0.0000000E+00  0.3800000E+00  0.9608805E-07  0.4976663E-02  0.9950232E+00
  0.0000000E+00  0.0000000E+00  0.3850000E+00  0.9608805E-07  0.4979907E-02  0.9950200E+00
  0.0000000E+00  0.0000000E+00  0.3900000E+00  0.9608805E-07  0.4983264E-02  0.9950166E+00
  0.0000000E+00  0.0000000E+00  0.3950000E+00  0.9608805E-07  0.4986739E-02  0.9950132E+00
  0.0000000E+00  0.0000000E+00  0.4000000E+00  0.9608805E-07  0.4990332E-02  0.9950096E+00
