title = "dataset surfa2"
variables = "x","y","z","pH","ionic strength", "C-Alk [eq/L]","NC-Alk [eq/L]","Alk [eq/L]","C-Alk [mg/L CaCO_3]","NC-Alk [mg/L CACO_3]","Alk [mg/L CaCO_3]","temperature"
zone t = "Master variables, T =  5.000E+00 hours", i =  101, j =    1, k =    1,  f=point
  0.0000000E+00  0.0000000E+00  0.0000000E+00  0.2000000E+01  0.5500000E-02  0.0000000E+00  0.0000000E+00  0.0000000E+00  0.0000000E+00  0.0000000E+00  0.0000000E+00  0.2500000E+02
  0.0000000E+00  0.0000000E+00  0.1600000E+00  0.2000000E+01  0.5499999E-02  0.0000000E+00  0.0000000E+00  0.0000000E+00  0.0000000E+00  0.0000000E+00  0.0000000E+00  0.2500000E+02
  0.0000000E+00  0.0000000E+00  0.3200000E+00  0.2000000E+01  0.5499997E-02  0.0000000E+00  0.0000000E+00  0.0000000E+00  0.0000000E+00  0.0000000E+00  0.0000000E+00  0.2500000E+02
  0.0000000E+00  0.0000000E+00  0.4800000E+00  0.2000001E+01  0.5499993E-02  0.0000000E+00  0.0000000E+00  0.0000000E+00  0.0000000E+00  0.0000000E+00  0.0000000E+00  0.2500000E+02
  0.0000000E+00  0.0000000E+00  0.6400000E+00  0.2000001E+01  0.5499985E-02  0.0000000E+00  0.0000000E+00  0.0000000E+00  0.0000000E+00  0.0000000E+00  0.0000000E+00  0.2500000E+02
  0.0000000E+00  0.0000000E+00  0.8000000E+00  0.2000003E+01  0.5499968E-02  0.0000000E+00  0.0000000E+00  0.0000000E+00  0.0000000E+00  0.0000000E+00  0.0000000E+00  0.2500000E+02
  0.0000000E+00  0.0000000E+00  0.9600000E+00  0.2000005E+01  0.5499933E-02  0.0000000E+00  0.0000000E+00  0.0000000E+00  0.0000000E+00  0.0000000E+00  0.0000000E+00  0.2500000E+02
  0.0000000E+00  0.0000000E+00  0.1120000E+01  0.2000010E+01  0.5499869E-02  0.0000000E+00  0.0000000E+00  0.0000000E+00  0.0000000E+00  0.0000000E+00  0.0000000E+00  0.2500000E+02
  0.0000000E+00  0.0000000E+00  0.1280000E+01  0.2000020E+01  0.5499751E-02  0.0000000E+00  0.0000000E+00  0.0000000E+00  0.0000000E+00  0.0000000E+00  0.0000000E+00  0.2500000E+02
  0.0000000E+00  0.0000000E+00  0.1440000E+01  0.2000036E+01  0.5499542E-02  0.0000000E+00  0.0000000E+00  0.0000000E+00  0.0000000E+00  0.0000000E+00  0.0000000E+00  0.2500000E+02
  0.0000000E+00  0.0000000E+00  0.1600000E+01  0.2000064E+01  0.5499185E-02  0.0000000E+00  0.0000000E+00  0.0000000E+00  0.0000000E+00  0.0000000E+00  0.0000000E+00  0.2500000E+02
  0.0000000E+00  0.0000000E+00  0.1760000E+01  0.2000112E+01  0.5498588E-02  0.0000000E+00  0.0000000E+00  0.0000000E+00  0.0000000E+00  0.0000000E+00  0.0000000E+00  0.2500000E+02
  0.0000000E+00  0.0000000E+00  0.1920000E+01  0.2000188E+01  0.5497619E-02  0.0000000E+00  0.0000000E+00  0.0000000E+00  0.0000000E+00  0.0000000E+00  0.0000000E+00  0.2500000E+02
  0.0000000E+00  0.0000000E+00  0.2080000E+01  0.2000309E+01  0.5496088E-02  0.0000000E+00  0.0000000E+00  0.0000000E+00  0.0000000E+00  0.0000000E+00  0.0000000E+00  0.2500000E+02
  0.0000000E+00  0.0000000E+00  0.2240000E+01  0.2000496E+01  0.5493725E-02  0.0000000E+00  0.0000000E+00  0.0000000E+00  0.0000000E+00  0.0000000E+00  0.0000000E+00  0.2500000E+02
  0.0000000E+00  0.0000000E+00  0.2400000E+01  0.2000777E+01  0.5490167E-02  0.0000000E+00  0.0000000E+00  0.0000000E+00  0.0000000E+00  0.0000000E+00  0.0000000E+00  0.2500000E+02
  0.0000000E+00  0.0000000E+00  0.2560000E+01  0.2001192E+01  0.5484932E-02  0.0000000E+00  0.0000000E+00  0.0000000E+00  0.0000000E+00  0.0000000E+00  0.0000000E+00  0.2500000E+02
  0.0000000E+00  0.0000000E+00  0.2720000E+01  0.2001789E+01  0.5477402E-02  0.0000000E+00  0.0000000E+00  0.0000000E+00  0.0000000E+00  0.0000000E+00  0.0000000E+00  0.2500000E+02
  0.0000000E+00  0.0000000E+00  0.2880000E+01  0.2002630E+01  0.5466803E-02  0.0000000E+00  0.0000000E+00  0.0000000E+00  0.0000000E+00  0.0000000E+00  0.0000000E+00  0.2500000E+02
  0.0000000E+00  0.0000000E+00  0.3040000E+01  0.2003792E+01  0.5452195E-02  0.0000000E+00  0.0000000E+00  0.0000000E+00  0.0000000E+00  0.0000000E+00  0.0000000E+00  0.2500000E+02
  0.0000000E+00  0.0000000E+00  0.3200000E+01  0.2005367E+01  0.5432472E-02  0.0000000E+00  0.0000000E+00  0.0000000E+00  0.0000000E+00  0.0000000E+00  0.0000000E+00  0.2500000E+02
  0.0000000E+00  0.0000000E+00  0.3360000E+01  0.2007459E+01  0.5406365E-02  0.0000000E+00  0.0000000E+00  0.0000000E+00  0.0000000E+00  0.0000000E+00  0.0000000E+00  0.2500000E+02
  0.0000000E+00  0.0000000E+00  0.3520000E+01  0.2010192E+01  0.5372469E-02  0.0000000E+00  0.0000000E+00  0.0000000E+00  0.0000000E+00  0.0000000E+00  0.0000000E+00  0.2500000E+02
  0.0000000E+00  0.0000000E+00  0.3680000E+01  0.2013698E+01  0.5329275E-02  0.0000000E+00  0.0000000E+00  0.0000000E+00  0.0000000E+00  0.0000000E+00  0.0000000E+00  0.2500000E+02
  0.0000000E+00  0.0000000E+00  0.3840000E+01  0.2018127E+01  0.5275227E-02  0.0000000E+00  0.0000000E+00  0.0000000E+00  0.0000000E+00  0.0000000E+00  0.0000000E+00  0.2500000E+02
  0.0000000E+00  0.0000000E+00  0.4000000E+01  0.2023633E+01  0.5208783E-02  0.0000000E+00  0.0000000E+00  0.0000000E+00  0.0000000E+00  0.0000000E+00  0.0000000E+00  0.2500000E+02
  0.0000000E+00  0.0000000E+00  0.4160000E+01  0.2030382E+01  0.5128492E-02  0.0000000E+00  0.0000000E+00  0.0000000E+00  0.0000000E+00  0.0000000E+00  0.0000000E+00  0.2500000E+02
  0.0000000E+00  0.0000000E+00  0.4320000E+01  0.2038540E+01  0.5033078E-02  0.0000000E+00  0.0000000E+00  0.0000000E+00  0.0000000E+00  0.0000000E+00  0.0000000E+00  0.2500000E+02
  0.0000000E+00  0.0000000E+00  0.4480000E+01  0.2048278E+01  0.4921519E-02  0.0000000E+00  0.0000000E+00  0.0000000E+00  0.0000000E+00  0.0000000E+00  0.0000000E+00  0.2500000E+02
  0.0000000E+00  0.0000000E+00  0.4640000E+01  0.2059762E+01  0.4793132E-02  0.0000000E+00  0.0000000E+00  0.0000000E+00  0.0000000E+00  0.0000000E+00  0.0000000E+00  0.2500000E+02
  0.0000000E+00  0.0000000E+00  0.4800000E+01  0.2073154E+01  0.4647631E-02  0.0000000E+00  0.0000000E+00  0.0000000E+00  0.0000000E+00  0.0000000E+00  0.0000000E+00  0.2500000E+02
  0.0000000E+00  0.0000000E+00  0.4960000E+01  0.2088611E+01  0.4485184E-02  0.0000000E+00  0.0000000E+00  0.0000000E+00  0.0000000E+00  0.0000000E+00  0.0000000E+00  0.2500000E+02
  0.0000000E+00  0.0000000E+00  0.5120000E+01  0.2106280E+01  0.4306439E-02  0.0000000E+00  0.0000000E+00  0.0000000E+00  0.0000000E+00  0.0000000E+00  0.0000000E+00  0.2500000E+02
  0.0000000E+00  0.0000000E+00  0.5280000E+01  0.2126298E+01  0.4112524E-02  0.0000000E+00  0.0000000E+00  0.0000000E+00  0.0000000E+00  0.0000000E+00  0.0000000E+00  0.2500000E+02
  0.0000000E+00  0.0000000E+00  0.5440000E+01  0.2148792E+01  0.3905029E-02  0.0000000E+00  0.0000000E+00  0.0000000E+00  0.0000000E+00  0.0000000E+00  0.0000000E+00  0.2500000E+02
  0.0000000E+00  0.0000000E+00  0.5600000E+01  0.2173879E+01  0.3685957E-02  0.0000000E+00  0.0000000E+00  0.0000000E+00  0.0000000E+00  0.0000000E+00  0.0000000E+00  0.2500000E+02
  0.0000000E+00  0.0000000E+00  0.5760000E+01  0.2201663E+01  0.3457654E-02  0.0000000E+00  0.0000000E+00  0.0000000E+00  0.0000000E+00  0.0000000E+00  0.0000000E+00  0.2500000E+02
  0.0000000E+00  0.0000000E+00  0.5920000E+01  0.2232242E+01  0.3222721E-02  0.0000000E+00  0.0000000E+00  0.0000000E+00  0.0000000E+00  0.0000000E+00  0.0000000E+00  0.2500000E+02
  0.0000000E+00  0.0000000E+00  0.6080000E+01  0.2265703E+01  0.2983917E-02  0.0000000E+00  0.0000000E+00  0.0000000E+00  0.0000000E+00  0.0000000E+00  0.0000000E+00  0.2500000E+02
  0.0000000E+00  0.0000000E+00  0.6240000E+01  0.2302131E+01  0.2744053E-02  0.0000000E+00  0.0000000E+00  0.0000000E+00  0.0000000E+00  0.0000000E+00  0.0000000E+00  0.2500000E+02
  0.0000000E+00  0.0000000E+00  0.6400000E+01  0.2341606E+01  0.2505885E-02  0.0000000E+00  0.0000000E+00  0.0000000E+00  0.0000000E+00  0.0000000E+00  0.0000000E+00  0.2500000E+02
  0.0000000E+00  0.0000000E+00  0.6560000E+01  0.2384214E+01  0.2272019E-02  0.0000000E+00  0.0000000E+00  0.0000000E+00  0.0000000E+00  0.0000000E+00  0.0000000E+00  0.2500000E+02
  0.0000000E+00  0.0000000E+00  0.6720000E+01  0.2430049E+01  0.2044826E-02  0.0000000E+00  0.0000000E+00  0.0000000E+00  0.0000000E+00  0.0000000E+00  0.0000000E+00  0.2500000E+02
  0.0000000E+00  0.0000000E+00  0.6880000E+01  0.2479227E+01  0.1826367E-02  0.0000000E+00  0.0000000E+00  0.0000000E+00  0.0000000E+00  0.0000000E+00  0.0000000E+00  0.2500000E+02
  0.0000000E+00  0.0000000E+00  0.7040000E+01  0.2531895E+01  0.1618347E-02  0.0000000E+00  0.0000000E+00  0.0000000E+00  0.0000000E+00  0.0000000E+00  0.0000000E+00  0.2500000E+02
  0.0000000E+00  0.0000000E+00  0.7200000E+01  0.2588255E+01  0.1422084E-02  0.0000000E+00  0.0000000E+00  0.0000000E+00  0.0000000E+00  0.0000000E+00  0.0000000E+00  0.2500000E+02
  0.0000000E+00  0.0000000E+00  0.7360000E+01  0.2648583E+01  0.1238505E-02  0.0000000E+00  0.0000000E+00  0.0000000E+00  0.0000000E+00  0.0000000E+00  0.0000000E+00  0.2500000E+02
  0.0000000E+00  0.0000000E+00  0.7520000E+01  0.2713269E+01  0.1068167E-02  0.0000000E+00  0.0000000E+00  0.0000000E+00  0.0000000E+00  0.0000000E+00  0.0000000E+00  0.2500000E+02
  0.0000000E+00  0.0000000E+00  0.7680000E+01  0.2782852E+01  0.9113126E-03  0.0000000E+00  0.0000000E+00  0.0000000E+00  0.0000000E+00  0.0000000E+00  0.0000000E+00  0.2500000E+02
  0.0000000E+00  0.0000000E+00  0.7840000E+01  0.2858061E+01  0.7679480E-03  0.0000000E+00  0.0000000E+00  0.0000000E+00  0.0000000E+00  0.0000000E+00  0.0000000E+00  0.2500000E+02
  0.0000000E+00  0.0000000E+00  0.8000000E+01  0.2939856E+01  0.6379496E-03  0.0000000E+00  0.0000000E+00  0.0000000E+00  0.0000000E+00  0.0000000E+00  0.0000000E+00  0.2500000E+02
  0.0000000E+00  0.0000000E+00  0.8160000E+01  0.3029459E+01  0.5211546E-03  0.0000000E+00  0.0000000E+00  0.0000000E+00  0.0000000E+00  0.0000000E+00  0.0000000E+00  0.2500000E+02
  0.0000000E+00  0.0000000E+00  0.8320000E+01  0.3128412E+01  0.4174037E-03  0.0000000E+00  0.0000000E+00  0.0000000E+00  0.0000000E+00  0.0000000E+00  0.0000000E+00  0.2500000E+02
  0.0000000E+00  0.0000000E+00  0.8480000E+01  0.3238708E+01  0.3265168E-03  0.0000000E+00  0.0000000E+00  0.0000000E+00  0.0000000E+00  0.0000000E+00  0.0000000E+00  0.2500000E+02
  0.0000000E+00  0.0000000E+00  0.8640000E+01  0.3363023E+01  0.2482476E-03  0.0000000E+00  0.0000000E+00  0.0000000E+00  0.0000000E+00  0.0000000E+00  0.0000000E+00  0.2500000E+02
  0.0000000E+00  0.0000000E+00  0.8800000E+01  0.3505031E+01  0.1822838E-03  0.0000000E+00  0.0000000E+00  0.0000000E+00  0.0000000E+00  0.0000000E+00  0.0000000E+00  0.2500000E+02
  0.0000000E+00  0.0000000E+00  0.8960000E+01  0.3669589E+01  0.1283054E-03  0.0000000E+00  0.0000000E+00  0.0000000E+00  0.0000000E+00  0.0000000E+00  0.0000000E+00  0.2500000E+02
  0.0000000E+00  0.0000000E+00  0.9120000E+01  0.3862264E+01  0.8601698E-04  0.0000000E+00  0.0000000E+00  0.0000000E+00  0.0000000E+00  0.0000000E+00  0.0000000E+00  0.2500000E+02
  0.0000000E+00  0.0000000E+00  0.9280000E+01  0.4087188E+01  0.5495795E-04  0.0000000E+00  0.0000000E+00  0.0000000E+00  0.0000000E+00  0.0000000E+00  0.0000000E+00  0.2500000E+02
  0.0000000E+00  0.0000000E+00  0.9440000E+01  0.4343208E+01  0.3399501E-04  0.0000000E+00  0.0000000E+00  0.0000000E+00  0.0000000E+00  0.0000000E+00  0.0000000E+00  0.2500000E+02
  0.0000000E+00  0.0000000E+00  0.9600000E+01  0.4621760E+01  0.2099318E-04  0.0000000E+00  0.0000000E+00  0.0000000E+00  0.0000000E+00  0.0000000E+00  0.0000000E+00  0.2500000E+02
  0.0000000E+00  0.0000000E+00  0.9760000E+01  0.4909322E+01  0.1335819E-04  0.0000000E+00  0.0000000E+00  0.0000000E+00  0.0000000E+00  0.0000000E+00  0.0000000E+00  0.2500000E+02
  0.0000000E+00  0.0000000E+00  0.9920000E+01  0.5190176E+01  0.8920947E-05  0.0000000E+00  0.0000000E+00  0.0000000E+00  0.0000000E+00  0.0000000E+00  0.0000000E+00  0.2500000E+02
  0.0000000E+00  0.0000000E+00  0.1008000E+02  0.5445993E+01  0.6271777E-05  0.0000000E+00  0.0000000E+00  0.0000000E+00  0.0000000E+00  0.0000000E+00  0.0000000E+00  0.2500000E+02
  0.0000000E+00  0.0000000E+00  0.1024000E+02  0.5656490E+01  0.4612399E-05  0.0000000E+00  0.0000000E+00  0.0000000E+00  0.0000000E+00  0.0000000E+00  0.0000000E+00  0.2500000E+02
  0.0000000E+00  0.0000000E+00  0.1040000E+02  0.5807354E+01  0.3515413E-05  0.0000000E+00  0.0000000E+00  0.0000000E+00  0.0000000E+00  0.0000000E+00  0.0000000E+00  0.2500000E+02
  0.0000000E+00  0.0000000E+00  0.1056000E+02  0.5900369E+01  0.2753438E-05  0.0000000E+00  0.0000000E+00  0.0000000E+00  0.0000000E+00  0.0000000E+00  0.0000000E+00  0.2500000E+02
  0.0000000E+00  0.0000000E+00  0.1072000E+02  0.5951007E+01  0.2203234E-05  0.0000000E+00  0.0000000E+00  0.0000000E+00  0.0000000E+00  0.0000000E+00  0.0000000E+00  0.2500000E+02
  0.0000000E+00  0.0000000E+00  0.1088000E+02  0.5976479E+01  0.1795504E-05  0.0000000E+00  0.0000000E+00  0.0000000E+00  0.0000000E+00  0.0000000E+00  0.0000000E+00  0.2500000E+02
  0.0000000E+00  0.0000000E+00  0.1104000E+02  0.5988792E+01  0.1488861E-05  0.0000000E+00  0.0000000E+00  0.0000000E+00  0.0000000E+00  0.0000000E+00  0.0000000E+00  0.2500000E+02
  0.0000000E+00  0.0000000E+00  0.1120000E+02  0.5994654E+01  0.1256667E-05  0.0000000E+00  0.0000000E+00  0.0000000E+00  0.0000000E+00  0.0000000E+00  0.0000000E+00  0.2500000E+02
  0.0000000E+00  0.0000000E+00  0.1136000E+02  0.5997438E+01  0.1080534E-05  0.0000000E+00  0.0000000E+00  0.0000000E+00  0.0000000E+00  0.0000000E+00  0.0000000E+00  0.2500000E+02
  0.0000000E+00  0.0000000E+00  0.1152000E+02  0.5998765E+01  0.9470879E-06  0.0000000E+00  0.0000000E+00  0.0000000E+00  0.0000000E+00  0.0000000E+00  0.0000000E+00  0.2500000E+02
  0.0000000E+00  0.0000000E+00  0.1168000E+02  0.5999401E+01  0.8462814E-06  0.0000000E+00  0.0000000E+00  0.0000000E+00  0.0000000E+00  0.0000000E+00  0.0000000E+00  0.2500000E+02
  0.0000000E+00  0.0000000E+00  0.1184000E+02  0.5999708E+01  0.7704283E-06  0.0000000E+00  0.0000000E+00  0.0000000E+00  0.0000000E+00  0.0000000E+00  0.0000000E+00  0.2500000E+02
  0.0000000E+00  0.0000000E+00  0.1200000E+02  0.5999857E+01  0.7136047E-06  0.0000000E+00  0.0000000E+00  0.0000000E+00  0.0000000E+00  0.0000000E+00  0.0000000E+00  0.2500000E+02
  0.0000000E+00  0.0000000E+00  0.1216000E+02  0.5999930E+01  0.6712369E-06  0.0000000E+00  0.0000000E+00  0.0000000E+00  0.0000000E+00  0.0000000E+00  0.0000000E+00  0.2500000E+02
  0.0000000E+00  0.0000000E+00  0.1232000E+02  0.5999965E+01  0.6397997E-06  0.0000000E+00  0.0000000E+00  0.0000000E+00  0.0000000E+00  0.0000000E+00  0.0000000E+00  0.2500000E+02
  0.0000000E+00  0.0000000E+00  0.1248000E+02  0.5999983E+01  0.6165867E-06  0.0000000E+00  0.0000000E+00  0.0000000E+00  0.0000000E+00  0.0000000E+00  0.0000000E+00  0.2500000E+02
  0.0000000E+00  0.0000000E+00  0.1264000E+02  0.5999992E+01  0.5995295E-06  0.0000000E+00  0.0000000E+00  0.0000000E+00  0.0000000E+00  0.0000000E+00  0.0000000E+00  0.2500000E+02
  0.0000000E+00  0.0000000E+00  0.1280000E+02  0.5999996E+01  0.5870560E-06  0.0000000E+00  0.0000000E+00  0.0000000E+00  0.0000000E+00  0.0000000E+00  0.0000000E+00  0.2500000E+02
  0.0000000E+00  0.0000000E+00  0.1296000E+02  0.5999998E+01  0.5779779E-06  0.0000000E+00  0.0000000E+00  0.0000000E+00  0.0000000E+00  0.0000000E+00  0.0000000E+00  0.2500000E+02
  0.0000000E+00  0.0000000E+00  0.1312000E+02  0.5999999E+01  0.5714018E-06  0.0000000E+00  0.0000000E+00  0.0000000E+00  0.0000000E+00  0.0000000E+00  0.0000000E+00  0.2500000E+02
  0.0000000E+00  0.0000000E+00  0.1328000E+02  0.6000000E+01  0.5666602E-06  0.0000000E+00  0.0000000E+00  0.0000000E+00  0.0000000E+00  0.0000000E+00  0.0000000E+00  0.2500000E+02
  0.0000000E+00  0.0000000E+00  0.1344000E+02  0.6000000E+01  0.5632569E-06  0.0000000E+00  0.0000000E+00  0.0000000E+00  0.0000000E+00  0.0000000E+00  0.0000000E+00  0.2500000E+02
  0.0000000E+00  0.0000000E+00  0.1360000E+02  0.6000000E+01  0.5608249E-06  0.0000000E+00  0.0000000E+00  0.0000000E+00  0.0000000E+00  0.0000000E+00  0.0000000E+00  0.2500000E+02
  0.0000000E+00  0.0000000E+00  0.1376000E+02  0.6000000E+01  0.5590948E-06  0.0000000E+00  0.0000000E+00  0.0000000E+00  0.0000000E+00  0.0000000E+00  0.0000000E+00  0.2500000E+02
  0.0000000E+00  0.0000000E+00  0.1392000E+02  0.6000000E+01  0.5578693E-06  0.0000000E+00  0.0000000E+00  0.0000000E+00  0.0000000E+00  0.0000000E+00  0.0000000E+00  0.2500000E+02
  0.0000000E+00  0.0000000E+00  0.1408000E+02  0.6000000E+01  0.5570048E-06  0.0000000E+00  0.0000000E+00  0.0000000E+00  0.0000000E+00  0.0000000E+00  0.0000000E+00  0.2500000E+02
  0.0000000E+00  0.0000000E+00  0.1424000E+02  0.6000000E+01  0.5563976E-06  0.0000000E+00  0.0000000E+00  0.0000000E+00  0.0000000E+00  0.0000000E+00  0.0000000E+00  0.2500000E+02
  0.0000000E+00  0.0000000E+00  0.1440000E+02  0.6000000E+01  0.5559728E-06  0.0000000E+00  0.0000000E+00  0.0000000E+00  0.0000000E+00  0.0000000E+00  0.0000000E+00  0.2500000E+02
  0.0000000E+00  0.0000000E+00  0.1456000E+02  0.6000000E+01  0.5556769E-06  0.0000000E+00  0.0000000E+00  0.0000000E+00  0.0000000E+00  0.0000000E+00  0.0000000E+00  0.2500000E+02
  0.0000000E+00  0.0000000E+00  0.1472000E+02  0.6000000E+01  0.5554715E-06  0.0000000E+00  0.0000000E+00  0.0000000E+00  0.0000000E+00  0.0000000E+00  0.0000000E+00  0.2500000E+02
  0.0000000E+00  0.0000000E+00  0.1488000E+02  0.6000000E+01  0.5553295E-06  0.0000000E+00  0.0000000E+00  0.0000000E+00  0.0000000E+00  0.0000000E+00  0.0000000E+00  0.2500000E+02
  0.0000000E+00  0.0000000E+00  0.1504000E+02  0.6000000E+01  0.5552318E-06  0.0000000E+00  0.0000000E+00  0.0000000E+00  0.0000000E+00  0.0000000E+00  0.0000000E+00  0.2500000E+02
  0.0000000E+00  0.0000000E+00  0.1520000E+02  0.6000000E+01  0.5551647E-06  0.0000000E+00  0.0000000E+00  0.0000000E+00  0.0000000E+00  0.0000000E+00  0.0000000E+00  0.2500000E+02
  0.0000000E+00  0.0000000E+00  0.1536000E+02  0.6000000E+01  0.5551188E-06  0.0000000E+00  0.0000000E+00  0.0000000E+00  0.0000000E+00  0.0000000E+00  0.0000000E+00  0.2500000E+02
  0.0000000E+00  0.0000000E+00  0.1552000E+02  0.6000000E+01  0.5550876E-06  0.0000000E+00  0.0000000E+00  0.0000000E+00  0.0000000E+00  0.0000000E+00  0.0000000E+00  0.2500000E+02
  0.0000000E+00  0.0000000E+00  0.1568000E+02  0.6000000E+01  0.5550666E-06  0.0000000E+00  0.0000000E+00  0.0000000E+00  0.0000000E+00  0.0000000E+00  0.0000000E+00  0.2500000E+02
  0.0000000E+00  0.0000000E+00  0.1584000E+02  0.6000000E+01  0.5550530E-06  0.0000000E+00  0.0000000E+00  0.0000000E+00  0.0000000E+00  0.0000000E+00  0.0000000E+00  0.2500000E+02
  0.0000000E+00  0.0000000E+00  0.1600000E+02  0.6000000E+01  0.5550478E-06  0.0000000E+00  0.0000000E+00  0.0000000E+00  0.0000000E+00  0.0000000E+00  0.0000000E+00  0.2500000E+02
