title = "dataset surfa2"
variables = "time","h+1","ha","na+1","=soh"
zone t = "T_j, volume =   101", f=point
  0.0000000E+00  0.8990448E-06  0.1000000E-06  0.1000000E-06  0.9882770E-04
  0.2400000E-06  0.8990448E-06  0.1000000E-06  0.1000000E-06  0.9882770E-04
  0.7584593E-06  0.8990448E-06  0.1000000E-06  0.1000000E-06  0.9882770E-04
  0.1728408E-05  0.8990448E-06  0.1000000E-06  0.1000000E-06  0.9882770E-04
  0.3543015E-05  0.8990448E-06  0.1000000E-06  0.1000000E-06  0.9882770E-04
  0.6937835E-05  0.8990448E-06  0.1000000E-06  0.1000000E-06  0.9882770E-04
  0.1328896E-04  0.8990448E-06  0.1000000E-06  0.1000000E-06  0.9882770E-04
  0.2391643E-04  0.8990448E-06  0.1000000E-06  0.1000000E-06  0.9882770E-04
  0.4169958E-04  0.8990448E-06  0.1000000E-06  0.1000000E-06  0.9882770E-04
  0.7145648E-04  0.8990448E-06  0.1000000E-06  0.1000000E-06  0.9882770E-04
  0.1212493E-03  0.8990448E-06  0.1000000E-06  0.1000000E-06  0.9882770E-04
  0.2045686E-03  0.8990448E-06  0.1000000E-06  0.1000000E-06  0.9882770E-04
  0.3439886E-03  0.8990448E-06  0.1000000E-06  0.1000000E-06  0.9882770E-04
  0.5772827E-03  0.8990448E-06  0.1000000E-06  0.1000000E-06  0.9882770E-04
  0.9625114E-03  0.8990448E-06  0.1000000E-06  0.1000000E-06  0.9882770E-04
  0.1536719E-02  0.8990448E-06  0.1000000E-06  0.1000000E-06  0.9882770E-04
  0.2395516E-02  0.8990448E-06  0.1000000E-06  0.1000000E-06  0.9882770E-04
  0.3718126E-02  0.8990448E-06  0.1000000E-06  0.1000000E-06  0.9882770E-04
  0.5499540E-02  0.8990448E-06  0.1000000E-06  0.1000000E-06  0.9882770E-04
  0.7721586E-02  0.8990448E-06  0.1000000E-06  0.1000000E-06  0.9882770E-04
  0.1063789E-01  0.8990448E-06  0.1000000E-06  0.1000000E-06  0.9882770E-04
  0.1433588E-01  0.8990448E-06  0.1000000E-06  0.1000000E-06  0.9882770E-04
  0.1895307E-01  0.8990448E-06  0.1000000E-06  0.1000000E-06  0.9882770E-04
  0.2481645E-01  0.8990448E-06  0.1000000E-06  0.1000000E-06  0.9882770E-04
  0.3151973E-01  0.8990448E-06  0.1000000E-06  0.1000000E-06  0.9882770E-04
  0.3907545E-01  0.8990448E-06  0.1000000E-06  0.1000000E-06  0.9882770E-04
  0.4786049E-01  0.8990448E-06  0.1000000E-06  0.1000000E-06  0.9882770E-04
  0.5821595E-01  0.8990448E-06  0.1000000E-06  0.1000000E-06  0.9882770E-04
  0.7003861E-01  0.8990448E-06  0.1000000E-06  0.1000000E-06  0.9882770E-04
  0.8227679E-01  0.8990448E-06  0.1000000E-06  0.1000000E-06  0.9882770E-04
  0.9617033E-01  0.8990448E-06  0.1000000E-06  0.1000000E-06  0.9882770E-04
  0.1122736E+00  0.8990448E-06  0.1000000E-06  0.1000000E-06  0.9882770E-04
  0.1284589E+00  0.8990448E-06  0.1000000E-06  0.1000000E-06  0.9882770E-04
  0.1461635E+00  0.8990448E-06  0.1000000E-06  0.1000000E-06  0.9882770E-04
  0.1661906E+00  0.8990448E-06  0.1000000E-06  0.1000000E-06  0.9882770E-04
  0.1863511E+00  0.8990448E-06  0.1000000E-06  0.1000000E-06  0.9882770E-04
  0.2079846E+00  0.8990448E-06  0.1000000E-06  0.1000000E-06  0.9882770E-04
  0.2323946E+00  0.8990448E-06  0.1000000E-06  0.1000000E-06  0.9882770E-04
  0.2560617E+00  0.8990448E-06  0.1000000E-06  0.1000000E-06  0.9882770E-04
  0.2820855E+00  0.8990448E-06  0.1000000E-06  0.1000000E-06  0.9882770E-04
  0.3099084E+00  0.8990448E-06  0.1000000E-06  0.1000000E-06  0.9882770E-04
  0.3374534E+00  0.8990448E-06  0.1000000E-06  0.1000000E-06  0.9882770E-04
  0.3683793E+00  0.8990448E-06  0.1000000E-06  0.1000000E-06  0.9882770E-04
  0.3983464E+00  0.8990448E-06  0.1000000E-06  0.1000000E-06  0.9882770E-04
  0.4309747E+00  0.8990448E-06  0.1000000E-06  0.1000000E-06  0.9882770E-04
  0.4643237E+00  0.8990448E-06  0.1000000E-06  0.1000000E-06  0.9882770E-04
  0.4985895E+00  0.8990448E-06  0.1000000E-06  0.1000000E-06  0.9882770E-04
  0.5356990E+00  0.8990448E-06  0.1000000E-06  0.1000000E-06  0.9882770E-04
  0.5717706E+00  0.8990448E-06  0.1000000E-06  0.1000000E-06  0.9882770E-04
  0.6124625E+00  0.8990448E-06  0.1000000E-06  0.1000000E-06  0.9882770E-04
  0.6506000E+00  0.8990448E-06  0.1000000E-06  0.1000000E-06  0.9882770E-04
  0.6938266E+00  0.8990448E-06  0.1000000E-06  0.1000000E-06  0.9882770E-04
  0.7344036E+00  0.8990448E-06  0.1000000E-06  0.1000000E-06  0.9882770E-04
  0.7802280E+00  0.8990448E-06  0.1000000E-06  0.1000000E-06  0.9882770E-04
  0.8232444E+00  0.8990448E-06  0.1000000E-06  0.1000000E-06  0.9882770E-04
  0.8712821E+00  0.8990448E-06  0.1000000E-06  0.1000000E-06  0.9882770E-04
  0.9169304E+00  0.8990448E-06  0.1000000E-06  0.1000000E-06  0.9882770E-04
  0.9664039E+00  0.8990448E-06  0.1000000E-06  0.1000000E-06  0.9882770E-04
  0.1015053E+01  0.8990448E-06  0.1000000E-06  0.1000000E-06  0.9882770E-04
  0.1065769E+01  0.8990448E-06  0.1000000E-06  0.1000000E-06  0.9882770E-04
  0.1117734E+01  0.8990448E-06  0.1000000E-06  0.1000000E-06  0.9882770E-04
  0.1169843E+01  0.8990448E-06  0.1000000E-06  0.1000000E-06  0.9882770E-04
  0.1225572E+01  0.8990448E-06  0.1000000E-06  0.1000000E-06  0.9882770E-04
  0.1279536E+01  0.8990448E-06  0.1000000E-06  0.1000000E-06  0.9882770E-04
  0.1337160E+01  0.8990448E-06  0.1000000E-06  0.1000000E-06  0.9882770E-04
  0.1394405E+01  0.8990448E-06  0.1000000E-06  0.1000000E-06  0.9882770E-04
  0.1452782E+01  0.8990448E-06  0.1000000E-06  0.1000000E-06  0.9882770E-04
  0.1514620E+01  0.8990448E-06  0.1000000E-06  0.1000000E-06  0.9882770E-04
  0.1574723E+01  0.8990448E-06  0.1000000E-06  0.1000000E-06  0.9882770E-04
  0.1637413E+01  0.8990448E-06  0.1000000E-06  0.1000000E-06  0.9882770E-04
  0.1702011E+01  0.8990448E-06  0.1000000E-06  0.1000000E-06  0.9882770E-04
  0.1765908E+01  0.8990448E-06  0.1000000E-06  0.1000000E-06  0.9882770E-04
  0.1832226E+01  0.8990448E-06  0.1000000E-06  0.1000000E-06  0.9882770E-04
  0.1900440E+01  0.8990448E-06  0.1000000E-06  0.1000000E-06  0.9882770E-04
  0.1968050E+01  0.8990448E-06  0.1000000E-06  0.1000000E-06  0.9882770E-04
  0.2037713E+01  0.8990448E-06  0.1000000E-06  0.1000000E-06  0.9882770E-04
  0.2110354E+01  0.8990448E-06  0.1000000E-06  0.1000000E-06  0.9882770E-04
  0.2181818E+01  0.8990448E-06  0.1000000E-06  0.1000000E-06  0.9882770E-04
  0.2254888E+01  0.8990448E-06  0.1000000E-06  0.1000000E-06  0.9882770E-04
  0.2329973E+01  0.8990448E-06  0.1000000E-06  0.1000000E-06  0.9882770E-04
  0.2406718E+01  0.8990448E-06  0.1000000E-06  0.1000000E-06  0.9882770E-04
  0.2483264E+01  0.8990448E-06  0.1000000E-06  0.1000000E-06  0.9882770E-04
  0.2561253E+01  0.8990448E-06  0.1000000E-06  0.1000000E-06  0.9882770E-04
  0.2641203E+01  0.8990448E-06  0.1000000E-06  0.1000000E-06  0.9882770E-04
  0.2723424E+01  0.8990448E-06  0.1000000E-06  0.1000000E-06  0.9882770E-04
  0.2805305E+01  0.8990448E-06  0.1000000E-06  0.1000000E-06  0.9882770E-04
  0.2888429E+01  0.8990448E-06  0.1000000E-06  0.1000000E-06  0.9882770E-04
  0.2972751E+01  0.8990448E-06  0.1000000E-06  0.1000000E-06  0.9882770E-04
  0.3059151E+01  0.8990448E-06  0.1000000E-06  0.1000000E-06  0.9882770E-04
  0.3148092E+01  0.8990448E-06  0.1000000E-06  0.1000000E-06  0.9882770E-04
  0.3236894E+01  0.8990448E-06  0.1000000E-06  0.1000000E-06  0.9882770E-04
  0.3326902E+01  0.8990448E-06  0.1000000E-06  0.1000000E-06  0.9882770E-04
  0.3417755E+01  0.8990448E-06  0.1000000E-06  0.1000000E-06  0.9882770E-04
  0.3509950E+01  0.8990448E-06  0.1000000E-06  0.1000000E-06  0.9882770E-04
  0.3603634E+01  0.8990448E-06  0.1000000E-06  0.1000000E-06  0.9882770E-04
  0.3699101E+01  0.8990448E-06  0.1000000E-06  0.1000000E-06  0.9882770E-04
  0.3796505E+01  0.8990448E-06  0.1000000E-06  0.1000000E-06  0.9882770E-04
  0.3895936E+01  0.8990448E-06  0.1000000E-06  0.1000000E-06  0.9882770E-04
  0.3996120E+01  0.8990448E-06  0.1000000E-06  0.1000000E-06  0.9882770E-04
  0.4097648E+01  0.8990448E-06  0.1000000E-06  0.1000001E-06  0.9882770E-04
  0.4200285E+01  0.8990448E-06  0.1000000E-06  0.1000002E-06  0.9882770E-04
  0.4304186E+01  0.8990448E-06  0.1000000E-06  0.1000005E-06  0.9882770E-04
  0.4409337E+01  0.8990448E-06  0.1000000E-06  0.1000011E-06  0.9882770E-04
  0.4515807E+01  0.8990448E-06  0.1000000E-06  0.1000025E-06  0.9882770E-04
  0.4623627E+01  0.8990448E-06  0.1000000E-06  0.1000051E-06  0.9882770E-04
  0.4732848E+01  0.8990448E-06  0.1000000E-06  0.1000103E-06  0.9882770E-04
  0.4843513E+01  0.8990448E-06  0.1000000E-06  0.1000205E-06  0.9882770E-04
  0.4955677E+01  0.8990448E-06  0.1000000E-06  0.1000400E-06  0.9882770E-04
  0.5000000E+01  0.8990448E-06  0.1000000E-06  0.1000494E-06  0.9882770E-04
  0.5082921E+01  0.8990448E-06  0.1000000E-06  0.1000762E-06  0.9882770E-04
  0.5207773E+01  0.8990448E-06  0.1000000E-06  0.1001550E-06  0.9882770E-04
  0.5317773E+01  0.8990448E-06  0.1000000E-06  0.1002747E-06  0.9882770E-04
  0.5438365E+01  0.8990448E-06  0.1000000E-06  0.1005102E-06  0.9882770E-04
  0.5555992E+01  0.8990448E-06  0.1000000E-06  0.1009050E-06  0.9882770E-04
  0.5677011E+01  0.8990448E-06  0.1000000E-06  0.1015998E-06  0.9882770E-04
  0.5798352E+01  0.8990448E-06  0.1000000E-06  0.1027652E-06  0.9882770E-04
  0.5921587E+01  0.8990448E-06  0.9999999E-07  0.1047190E-06  0.9882770E-04
  0.6046157E+01  0.8990448E-06  0.9999998E-07  0.1079273E-06  0.9882770E-04
  0.6172613E+01  0.8990449E-06  0.9999994E-07  0.1131484E-06  0.9882770E-04
  0.6301071E+01  0.8990452E-06  0.9999984E-07  0.1215422E-06  0.9882770E-04
  0.6431951E+01  0.8990460E-06  0.9999959E-07  0.1349245E-06  0.9882770E-04
  0.6563188E+01  0.8990479E-06  0.9999896E-07  0.1555139E-06  0.9882770E-04
  0.6695946E+01  0.8990527E-06  0.9999741E-07  0.1870134E-06  0.9882770E-04
  0.6830203E+01  0.8990646E-06  0.9999363E-07  0.2345043E-06  0.9882769E-04
  0.6966605E+01  0.8990943E-06  0.9998442E-07  0.3055766E-06  0.9882768E-04
  0.7105597E+01  0.8991686E-06  0.9996207E-07  0.4111087E-06  0.9882765E-04
  0.7244686E+01  0.8993478E-06  0.9991033E-07  0.5621826E-06  0.9882757E-04
  0.7385625E+01  0.8997854E-06  0.9979087E-07  0.7784168E-06  0.9882737E-04
  0.7528517E+01  0.9008575E-06  0.9951968E-07  0.1084281E-05  0.9882683E-04
  0.7674252E+01  0.9035366E-06  0.9890980E-07  0.1515077E-05  0.9882537E-04
  0.7819654E+01  0.9099932E-06  0.9763016E-07  0.2098118E-05  0.9882153E-04
  0.7967570E+01  0.9261217E-06  0.9498983E-07  0.2894087E-05  0.9881096E-04
  0.8117954E+01  0.9671166E-06  0.8984083E-07  0.3968166E-05  0.9878140E-04
  0.8268723E+01  0.1069685E-05  0.8086446E-07  0.5375849E-05  0.9870054E-04
  0.8421595E+01  0.1332437E-05  0.6703659E-07  0.7220372E-05  0.9847612E-04
  0.8577382E+01  0.2016210E-05  0.4961872E-07  0.9624973E-05  0.9785618E-04
  0.8733011E+01  0.3713278E-05  0.3365436E-07  0.1265145E-04  0.9628904E-04
  0.8891550E+01  0.7963147E-05  0.2293081E-07  0.1649709E-04  0.9251856E-04
  0.9051722E+01  0.1812641E-04  0.1817718E-07  0.2128549E-04  0.8456617E-04
  0.9212904E+01  0.4054192E-04  0.1815586E-07  0.2714970E-04  0.7107961E-04
  0.9377690E+01  0.8492050E-04  0.2269841E-07  0.3437841E-04  0.5401941E-04
  0.9541969E+01  0.1565725E-03  0.3481362E-07  0.4294627E-04  0.3892708E-04
  0.9710106E+01  0.2589445E-03  0.7425429E-07  0.5327771E-04  0.2780513E-04
  0.9878150E+01  0.3880571E-03  0.2153201E-06  0.6528592E-04  0.2040237E-04
  0.1000000E+02  0.4950682E-03  0.4496125E-06  0.7491936E-04  0.1668177E-04
  0.1018914E+02  0.6905624E-03  0.1584519E-05  0.9222282E-04  0.1240438E-04
  0.1036124E+02  0.8919423E-03  0.4004743E-05  0.1099729E-03  0.9694222E-05
  0.1057419E+02  0.1174212E-02  0.1074395E-04  0.1350397E-03  0.7242331E-05
  0.1082196E+02  0.1542379E-02  0.2632987E-04  0.1683002E-03  0.5251929E-05
  0.1113947E+02  0.2068204E-02  0.6148825E-04  0.2170190E-03  0.3596741E-05
  0.1156965E+02  0.2850848E-02  0.1336005E-03  0.2915498E-03  0.2335112E-05
  0.1220678E+02  0.4065271E-02  0.2687308E-03  0.4098522E-03  0.1460639E-05
  0.1325481E+02  0.5868065E-02  0.4872866E-03  0.5880201E-03  0.9231091E-06
  0.1500850E+02  0.7862945E-02  0.7351564E-03  0.7865834E-03  0.6533651E-06
  0.1794300E+02  0.9267727E-02  0.9097578E-03  0.9268557E-03  0.5418408E-06
  0.2000000E+02  0.9711299E-02  0.9646441E-03  0.9712054E-03  0.5141947E-06
  0.2444363E+02  0.9938901E-02  0.9926431E-03  0.9939816E-03  0.5011174E-06
  0.2944363E+02  0.9988493E-02  0.9987171E-03  0.9989473E-03  0.4983623E-06
  0.3444363E+02  0.9997286E-02  0.9997910E-03  0.9998281E-03  0.4978778E-06
  0.3944363E+02  0.9998737E-02  0.9999679E-03  0.9999736E-03  0.4977980E-06
  0.4444363E+02  0.9998962E-02  0.9999953E-03  0.9999961E-03  0.4977856E-06
  0.4944363E+02  0.9998996E-02  0.9999993E-03  0.9999995E-03  0.4977838E-06
  0.5000000E+02  0.9998998E-02  0.9999996E-03  0.9999997E-03  0.4977837E-06
