title = "dataset surfa2"
variables = "x", "y", "z","=soh","=soh2+","=so-","=sa"
zone t = "S_i, T =  5.000E+00 hours", i =  101, j =    1, k =    1,  f=point
  0.0000000E+00  0.0000000E+00  0.0000000E+00  0.4977830E-06  0.4977830E-04  0.4977830E-13  0.4972857E-04
  0.0000000E+00  0.0000000E+00  0.1600000E+00  0.4977832E-06  0.4977831E-04  0.4977832E-13  0.4972858E-04
  0.0000000E+00  0.0000000E+00  0.3200000E+00  0.4977833E-06  0.4977831E-04  0.4977835E-13  0.4972857E-04
  0.0000000E+00  0.0000000E+00  0.4800000E+00  0.4977837E-06  0.4977831E-04  0.4977843E-13  0.4972858E-04
  0.0000000E+00  0.0000000E+00  0.6400000E+00  0.4977845E-06  0.4977831E-04  0.4977858E-13  0.4972857E-04
  0.0000000E+00  0.0000000E+00  0.8000000E+00  0.4977861E-06  0.4977832E-04  0.4977890E-13  0.4972856E-04
  0.0000000E+00  0.0000000E+00  0.9600000E+00  0.4977893E-06  0.4977833E-04  0.4977954E-13  0.4972854E-04
  0.0000000E+00  0.0000000E+00  0.1120000E+01  0.4977954E-06  0.4977835E-04  0.4978073E-13  0.4972851E-04
  0.0000000E+00  0.0000000E+00  0.1280000E+01  0.4978065E-06  0.4977840E-04  0.4978291E-13  0.4972846E-04
  0.0000000E+00  0.0000000E+00  0.1440000E+01  0.4978262E-06  0.4977847E-04  0.4978676E-13  0.4972836E-04
  0.0000000E+00  0.0000000E+00  0.1600000E+01  0.4978599E-06  0.4977861E-04  0.4979337E-13  0.4972819E-04
  0.0000000E+00  0.0000000E+00  0.1760000E+01  0.4979162E-06  0.4977883E-04  0.4980441E-13  0.4972791E-04
  0.0000000E+00  0.0000000E+00  0.1920000E+01  0.4980077E-06  0.4977920E-04  0.4982234E-13  0.4972744E-04
  0.0000000E+00  0.0000000E+00  0.2080000E+01  0.4981524E-06  0.4977980E-04  0.4985071E-13  0.4972670E-04
  0.0000000E+00  0.0000000E+00  0.2240000E+01  0.4983761E-06  0.4978073E-04  0.4989455E-13  0.4972555E-04
  0.0000000E+00  0.0000000E+00  0.2400000E+01  0.4987134E-06  0.4978215E-04  0.4996068E-13  0.4972379E-04
  0.0000000E+00  0.0000000E+00  0.2560000E+01  0.4992107E-06  0.4978427E-04  0.5005825E-13  0.4972117E-04
  0.0000000E+00  0.0000000E+00  0.2720000E+01  0.4999285E-06  0.4978738E-04  0.5019916E-13  0.4971735E-04
  0.0000000E+00  0.0000000E+00  0.2880000E+01  0.5009429E-06  0.4979185E-04  0.5039858E-13  0.4971187E-04
  0.0000000E+00  0.0000000E+00  0.3040000E+01  0.5023490E-06  0.4979814E-04  0.5067548E-13  0.4970417E-04
  0.0000000E+00  0.0000000E+00  0.3200000E+01  0.5042617E-06  0.4980687E-04  0.5105316E-13  0.4969352E-04
  0.0000000E+00  0.0000000E+00  0.3360000E+01  0.5068186E-06  0.4981878E-04  0.5155988E-13  0.4967906E-04
  0.0000000E+00  0.0000000E+00  0.3520000E+01  0.5101810E-06  0.4983479E-04  0.5222951E-13  0.4965969E-04
  0.0000000E+00  0.0000000E+00  0.3680000E+01  0.5145362E-06  0.4985601E-04  0.5310243E-13  0.4963411E-04
  0.0000000E+00  0.0000000E+00  0.3840000E+01  0.5200991E-06  0.4988378E-04  0.5422666E-13  0.4960077E-04
  0.0000000E+00  0.0000000E+00  0.4000000E+01  0.5271152E-06  0.4991973E-04  0.5565944E-13  0.4955781E-04
  0.0000000E+00  0.0000000E+00  0.4160000E+01  0.5358639E-06  0.4996577E-04  0.5746937E-13  0.4950302E-04
  0.0000000E+00  0.0000000E+00  0.4320000E+01  0.5466645E-06  0.5002423E-04  0.5973947E-13  0.4943376E-04
  0.0000000E+00  0.0000000E+00  0.4480000E+01  0.5598828E-06  0.5009785E-04  0.6257129E-13  0.4934692E-04
  0.0000000E+00  0.0000000E+00  0.4640000E+01  0.5759414E-06  0.5018993E-04  0.6609064E-13  0.4923877E-04
  0.0000000E+00  0.0000000E+00  0.4800000E+01  0.5953337E-06  0.5030446E-04  0.7045542E-13  0.4910486E-04
  0.0000000E+00  0.0000000E+00  0.4960000E+01  0.6186418E-06  0.5044619E-04  0.7586651E-13  0.4893982E-04
  0.0000000E+00  0.0000000E+00  0.5120000E+01  0.6465611E-06  0.5062090E-04  0.8258272E-13  0.4873718E-04
  0.0000000E+00  0.0000000E+00  0.5280000E+01  0.6799324E-06  0.5083561E-04  0.9094179E-13  0.4848911E-04
  0.0000000E+00  0.0000000E+00  0.5440000E+01  0.7197850E-06  0.5109881E-04  0.1013899E-12  0.4818606E-04
  0.0000000E+00  0.0000000E+00  0.5600000E+01  0.7673938E-06  0.5142090E-04  0.1145241E-12  0.4781636E-04
  0.0000000E+00  0.0000000E+00  0.5760000E+01  0.8243566E-06  0.5181458E-04  0.1311530E-12  0.4736572E-04
  0.0000000E+00  0.0000000E+00  0.5920000E+01  0.8926997E-06  0.5229540E-04  0.1523868E-12  0.4681655E-04
  0.0000000E+00  0.0000000E+00  0.6080000E+01  0.9750230E-06  0.5288244E-04  0.1797704E-12  0.4614719E-04
  0.0000000E+00  0.0000000E+00  0.6240000E+01  0.1074701E-05  0.5359902E-04  0.2154859E-12  0.4533093E-04
  0.0000000E+00  0.0000000E+00  0.6400000E+01  0.1196169E-05  0.5447361E-04  0.2626629E-12  0.4433487E-04
  0.0000000E+00  0.0000000E+00  0.6560000E+01  0.1345319E-05  0.5554067E-04  0.3258663E-12  0.4311866E-04
  0.0000000E+00  0.0000000E+00  0.6720000E+01  0.1530078E-05  0.5684130E-04  0.4118727E-12  0.4163327E-04
  0.0000000E+00  0.0000000E+00  0.6880000E+01  0.1761214E-05  0.5842317E-04  0.5309326E-12  0.3982027E-04
  0.0000000E+00  0.0000000E+00  0.7040000E+01  0.2053484E-05  0.6033869E-04  0.6988543E-12  0.3761247E-04
  0.0000000E+00  0.0000000E+00  0.7200000E+01  0.2427189E-05  0.6263961E-04  0.9404987E-12  0.3493785E-04
  0.0000000E+00  0.0000000E+00  0.7360000E+01  0.2910208E-05  0.6536439E-04  0.1295707E-11  0.3173005E-04
  0.0000000E+00  0.0000000E+00  0.7520000E+01  0.3540357E-05  0.6851382E-04  0.1829431E-11  0.2795047E-04
  0.0000000E+00  0.0000000E+00  0.7680000E+01  0.4367636E-05  0.7201033E-04  0.2649098E-11  0.2362668E-04
  0.0000000E+00  0.0000000E+00  0.7840000E+01  0.5455594E-05  0.7564514E-04  0.3934623E-11  0.1890392E-04
  0.0000000E+00  0.0000000E+00  0.8000000E+01  0.6881670E-05  0.7903835E-04  0.5991696E-11  0.1408462E-04
  0.0000000E+00  0.0000000E+00  0.8160000E+01  0.8739344E-05  0.8166205E-04  0.9352709E-11  0.9603248E-05
  0.0000000E+00  0.0000000E+00  0.8320000E+01  0.1114987E-04  0.8295794E-04  0.1498587E-10  0.5896820E-05
  0.0000000E+00  0.0000000E+00  0.8480000E+01  0.1429231E-04  0.8248867E-04  0.2476341E-10  0.3223643E-05
  0.0000000E+00  0.0000000E+00  0.8640000E+01  0.1845180E-04  0.7998625E-04  0.4256593E-10  0.1566554E-05
  0.0000000E+00  0.0000000E+00  0.8800000E+01  0.2407023E-04  0.7524010E-04  0.7700360E-10  0.6942416E-06
  0.0000000E+00  0.0000000E+00  0.8960000E+01  0.3175013E-04  0.6794478E-04  0.1483662E-09  0.3095930E-06
  0.0000000E+00  0.0000000E+00  0.9120000E+01  0.4206744E-04  0.5776730E-04  0.3063445E-09  0.1695980E-06
  0.0000000E+00  0.0000000E+00  0.9280000E+01  0.5493426E-04  0.4494233E-04  0.6714768E-09  0.1273798E-06
  0.0000000E+00  0.0000000E+00  0.9440000E+01  0.6871155E-04  0.3117607E-04  0.1514391E-08  0.1155124E-06
  0.0000000E+00  0.0000000E+00  0.9600000E+01  0.8062766E-04  0.1926300E-04  0.3374769E-08  0.1106176E-06
  0.0000000E+00  0.0000000E+00  0.9760000E+01  0.8893289E-04  0.1095824E-04  0.7217455E-08  0.1062995E-06
  0.0000000E+00  0.0000000E+00  0.9920000E+01  0.9383337E-04  0.6055939E-05  0.1453895E-07  0.1008012E-06
  0.0000000E+00  0.0000000E+00  0.1008000E+02  0.9643046E-04  0.3453194E-05  0.2692821E-07  0.9406600E-07
  0.0000000E+00  0.0000000E+00  0.1024000E+02  0.9771747E-04  0.2155172E-05  0.4430601E-07  0.8770000E-07
  0.0000000E+00  0.0000000E+00  0.1040000E+02  0.9832559E-04  0.1532190E-05  0.6309871E-07  0.8377317E-07
  0.0000000E+00  0.0000000E+00  0.1056000E+02  0.9860314E-04  0.1240285E-05  0.7838988E-07  0.8283284E-07
  0.0000000E+00  0.0000000E+00  0.1072000E+02  0.9872744E-04  0.1105175E-05  0.8819517E-07  0.8383667E-07
  0.0000000E+00  0.0000000E+00  0.1088000E+02  0.9878279E-04  0.1042803E-05  0.9357510E-07  0.8548137E-07
  0.0000000E+00  0.0000000E+00  0.1104000E+02  0.9880746E-04  0.1013906E-05  0.9629014E-07  0.8698914E-07
  0.0000000E+00  0.0000000E+00  0.1120000E+02  0.9881851E-04  0.1000425E-05  0.9760955E-07  0.8810124E-07
  0.0000000E+00  0.0000000E+00  0.1136000E+02  0.9882350E-04  0.9940821E-06  0.9824222E-07  0.8883018E-07
  0.0000000E+00  0.0000000E+00  0.1152000E+02  0.9882576E-04  0.9910722E-06  0.9854509E-07  0.8927420E-07
  0.0000000E+00  0.0000000E+00  0.1168000E+02  0.9882680E-04  0.9896318E-06  0.9869060E-07  0.8953173E-07
  0.0000000E+00  0.0000000E+00  0.1184000E+02  0.9882728E-04  0.9889373E-06  0.9876086E-07  0.8967604E-07
  0.0000000E+00  0.0000000E+00  0.1200000E+02  0.9882750E-04  0.9886003E-06  0.9879498E-07  0.8975488E-07
  0.0000000E+00  0.0000000E+00  0.1216000E+02  0.9882761E-04  0.9884358E-06  0.9881163E-07  0.8979714E-07
  0.0000000E+00  0.0000000E+00  0.1232000E+02  0.9882766E-04  0.9883552E-06  0.9881979E-07  0.8981946E-07
  0.0000000E+00  0.0000000E+00  0.1248000E+02  0.9882768E-04  0.9883155E-06  0.9882380E-07  0.8983111E-07
  0.0000000E+00  0.0000000E+00  0.1264000E+02  0.9882769E-04  0.9882960E-06  0.9882578E-07  0.8983712E-07
  0.0000000E+00  0.0000000E+00  0.1280000E+02  0.9882770E-04  0.9882864E-06  0.9882675E-07  0.8984021E-07
  0.0000000E+00  0.0000000E+00  0.1296000E+02  0.9882770E-04  0.9882816E-06  0.9882723E-07  0.8984178E-07
  0.0000000E+00  0.0000000E+00  0.1312000E+02  0.9882770E-04  0.9882793E-06  0.9882747E-07  0.8984257E-07
  0.0000000E+00  0.0000000E+00  0.1328000E+02  0.9882770E-04  0.9882781E-06  0.9882759E-07  0.8984297E-07
  0.0000000E+00  0.0000000E+00  0.1344000E+02  0.9882770E-04  0.9882776E-06  0.9882765E-07  0.8984317E-07
  0.0000000E+00  0.0000000E+00  0.1360000E+02  0.9882770E-04  0.9882773E-06  0.9882767E-07  0.8984327E-07
  0.0000000E+00  0.0000000E+00  0.1376000E+02  0.9882770E-04  0.9882771E-06  0.9882769E-07  0.8984332E-07
  0.0000000E+00  0.0000000E+00  0.1392000E+02  0.9882770E-04  0.9882771E-06  0.9882770E-07  0.8984334E-07
  0.0000000E+00  0.0000000E+00  0.1408000E+02  0.9882770E-04  0.9882770E-06  0.9882770E-07  0.8984335E-07
  0.0000000E+00  0.0000000E+00  0.1424000E+02  0.9882770E-04  0.9882770E-06  0.9882770E-07  0.8984336E-07
  0.0000000E+00  0.0000000E+00  0.1440000E+02  0.9882770E-04  0.9882770E-06  0.9882770E-07  0.8984336E-07
  0.0000000E+00  0.0000000E+00  0.1456000E+02  0.9882770E-04  0.9882770E-06  0.9882770E-07  0.8984336E-07
  0.0000000E+00  0.0000000E+00  0.1472000E+02  0.9882770E-04  0.9882770E-06  0.9882770E-07  0.8984336E-07
  0.0000000E+00  0.0000000E+00  0.1488000E+02  0.9882770E-04  0.9882770E-06  0.9882770E-07  0.8984336E-07
  0.0000000E+00  0.0000000E+00  0.1504000E+02  0.9882770E-04  0.9882770E-06  0.9882770E-07  0.8984336E-07
  0.0000000E+00  0.0000000E+00  0.1520000E+02  0.9882770E-04  0.9882770E-06  0.9882770E-07  0.8984336E-07
  0.0000000E+00  0.0000000E+00  0.1536000E+02  0.9882770E-04  0.9882770E-06  0.9882770E-07  0.8984336E-07
  0.0000000E+00  0.0000000E+00  0.1552000E+02  0.9882770E-04  0.9882770E-06  0.9882770E-07  0.8984337E-07
  0.0000000E+00  0.0000000E+00  0.1568000E+02  0.9882770E-04  0.9882770E-06  0.9882770E-07  0.8984337E-07
  0.0000000E+00  0.0000000E+00  0.1584000E+02  0.9882770E-04  0.9882770E-06  0.9882770E-07  0.8984337E-07
  0.0000000E+00  0.0000000E+00  0.1600000E+02  0.9882770E-04  0.9882770E-06  0.9882770E-07  0.8984337E-07
