title = "dataset surfa2"
variables = "time","=soh","=soh2+","=so-","=sa"
zone t = "S_i, volume =   101", f=point
  0.0000000E+00  0.9882770E-04  0.9882770E-06  0.9882770E-07  0.8984337E-07
  0.2400000E-06  0.9882770E-04  0.9882770E-06  0.9882770E-07  0.8984337E-07
  0.7584593E-06  0.9882770E-04  0.9882770E-06  0.9882770E-07  0.8984337E-07
  0.1728408E-05  0.9882770E-04  0.9882770E-06  0.9882770E-07  0.8984337E-07
  0.3543015E-05  0.9882770E-04  0.9882770E-06  0.9882770E-07  0.8984337E-07
  0.6937835E-05  0.9882770E-04  0.9882770E-06  0.9882770E-07  0.8984337E-07
  0.1328896E-04  0.9882770E-04  0.9882770E-06  0.9882770E-07  0.8984337E-07
  0.2391643E-04  0.9882770E-04  0.9882770E-06  0.9882770E-07  0.8984337E-07
  0.4169958E-04  0.9882770E-04  0.9882770E-06  0.9882770E-07  0.8984337E-07
  0.7145648E-04  0.9882770E-04  0.9882770E-06  0.9882770E-07  0.8984337E-07
  0.1212493E-03  0.9882770E-04  0.9882770E-06  0.9882770E-07  0.8984337E-07
  0.2045686E-03  0.9882770E-04  0.9882770E-06  0.9882770E-07  0.8984337E-07
  0.3439886E-03  0.9882770E-04  0.9882770E-06  0.9882770E-07  0.8984337E-07
  0.5772827E-03  0.9882770E-04  0.9882770E-06  0.9882770E-07  0.8984337E-07
  0.9625114E-03  0.9882770E-04  0.9882770E-06  0.9882770E-07  0.8984337E-07
  0.1536719E-02  0.9882770E-04  0.9882770E-06  0.9882770E-07  0.8984337E-07
  0.2395516E-02  0.9882770E-04  0.9882770E-06  0.9882770E-07  0.8984337E-07
  0.3718126E-02  0.9882770E-04  0.9882770E-06  0.9882770E-07  0.8984337E-07
  0.5499540E-02  0.9882770E-04  0.9882770E-06  0.9882770E-07  0.8984337E-07
  0.7721586E-02  0.9882770E-04  0.9882770E-06  0.9882770E-07  0.8984337E-07
  0.1063789E-01  0.9882770E-04  0.9882770E-06  0.9882770E-07  0.8984337E-07
  0.1433588E-01  0.9882770E-04  0.9882770E-06  0.9882770E-07  0.8984337E-07
  0.1895307E-01  0.9882770E-04  0.9882770E-06  0.9882770E-07  0.8984337E-07
  0.2481645E-01  0.9882770E-04  0.9882770E-06  0.9882770E-07  0.8984337E-07
  0.3151973E-01  0.9882770E-04  0.9882770E-06  0.9882770E-07  0.8984337E-07
  0.3907545E-01  0.9882770E-04  0.9882770E-06  0.9882770E-07  0.8984337E-07
  0.4786049E-01  0.9882770E-04  0.9882770E-06  0.9882770E-07  0.8984337E-07
  0.5821595E-01  0.9882770E-04  0.9882770E-06  0.9882770E-07  0.8984337E-07
  0.7003861E-01  0.9882770E-04  0.9882770E-06  0.9882770E-07  0.8984337E-07
  0.8227679E-01  0.9882770E-04  0.9882770E-06  0.9882770E-07  0.8984337E-07
  0.9617033E-01  0.9882770E-04  0.9882770E-06  0.9882770E-07  0.8984337E-07
  0.1122736E+00  0.9882770E-04  0.9882770E-06  0.9882770E-07  0.8984337E-07
  0.1284589E+00  0.9882770E-04  0.9882770E-06  0.9882770E-07  0.8984337E-07
  0.1461635E+00  0.9882770E-04  0.9882770E-06  0.9882770E-07  0.8984337E-07
  0.1661906E+00  0.9882770E-04  0.9882770E-06  0.9882770E-07  0.8984337E-07
  0.1863511E+00  0.9882770E-04  0.9882770E-06  0.9882770E-07  0.8984337E-07
  0.2079846E+00  0.9882770E-04  0.9882770E-06  0.9882770E-07  0.8984337E-07
  0.2323946E+00  0.9882770E-04  0.9882770E-06  0.9882770E-07  0.8984337E-07
  0.2560617E+00  0.9882770E-04  0.9882770E-06  0.9882770E-07  0.8984337E-07
  0.2820855E+00  0.9882770E-04  0.9882770E-06  0.9882770E-07  0.8984337E-07
  0.3099084E+00  0.9882770E-04  0.9882770E-06  0.9882770E-07  0.8984337E-07
  0.3374534E+00  0.9882770E-04  0.9882770E-06  0.9882770E-07  0.8984337E-07
  0.3683793E+00  0.9882770E-04  0.9882770E-06  0.9882770E-07  0.8984337E-07
  0.3983464E+00  0.9882770E-04  0.9882770E-06  0.9882770E-07  0.8984337E-07
  0.4309747E+00  0.9882770E-04  0.9882770E-06  0.9882770E-07  0.8984337E-07
  0.4643237E+00  0.9882770E-04  0.9882770E-06  0.9882770E-07  0.8984337E-07
  0.4985895E+00  0.9882770E-04  0.9882770E-06  0.9882770E-07  0.8984337E-07
  0.5356990E+00  0.9882770E-04  0.9882770E-06  0.9882770E-07  0.8984337E-07
  0.5717706E+00  0.9882770E-04  0.9882770E-06  0.9882770E-07  0.8984337E-07
  0.6124625E+00  0.9882770E-04  0.9882770E-06  0.9882770E-07  0.8984337E-07
  0.6506000E+00  0.9882770E-04  0.9882770E-06  0.9882770E-07  0.8984337E-07
  0.6938266E+00  0.9882770E-04  0.9882770E-06  0.9882770E-07  0.8984337E-07
  0.7344036E+00  0.9882770E-04  0.9882770E-06  0.9882770E-07  0.8984337E-07
  0.7802280E+00  0.9882770E-04  0.9882770E-06  0.9882770E-07  0.8984337E-07
  0.8232444E+00  0.9882770E-04  0.9882770E-06  0.9882770E-07  0.8984337E-07
  0.8712821E+00  0.9882770E-04  0.9882770E-06  0.9882770E-07  0.8984337E-07
  0.9169304E+00  0.9882770E-04  0.9882770E-06  0.9882770E-07  0.8984337E-07
  0.9664039E+00  0.9882770E-04  0.9882770E-06  0.9882770E-07  0.8984337E-07
  0.1015053E+01  0.9882770E-04  0.9882770E-06  0.9882770E-07  0.8984337E-07
  0.1065769E+01  0.9882770E-04  0.9882770E-06  0.9882770E-07  0.8984337E-07
  0.1117734E+01  0.9882770E-04  0.9882770E-06  0.9882770E-07  0.8984337E-07
  0.1169843E+01  0.9882770E-04  0.9882770E-06  0.9882770E-07  0.8984337E-07
  0.1225572E+01  0.9882770E-04  0.9882770E-06  0.9882770E-07  0.8984337E-07
  0.1279536E+01  0.9882770E-04  0.9882770E-06  0.9882770E-07  0.8984337E-07
  0.1337160E+01  0.9882770E-04  0.9882770E-06  0.9882770E-07  0.8984337E-07
  0.1394405E+01  0.9882770E-04  0.9882770E-06  0.9882770E-07  0.8984337E-07
  0.1452782E+01  0.9882770E-04  0.9882770E-06  0.9882770E-07  0.8984337E-07
  0.1514620E+01  0.9882770E-04  0.9882770E-06  0.9882770E-07  0.8984337E-07
  0.1574723E+01  0.9882770E-04  0.9882770E-06  0.9882770E-07  0.8984337E-07
  0.1637413E+01  0.9882770E-04  0.9882770E-06  0.9882770E-07  0.8984337E-07
  0.1702011E+01  0.9882770E-04  0.9882770E-06  0.9882770E-07  0.8984337E-07
  0.1765908E+01  0.9882770E-04  0.9882770E-06  0.9882770E-07  0.8984337E-07
  0.1832226E+01  0.9882770E-04  0.9882770E-06  0.9882770E-07  0.8984337E-07
  0.1900440E+01  0.9882770E-04  0.9882770E-06  0.9882770E-07  0.8984337E-07
  0.1968050E+01  0.9882770E-04  0.9882770E-06  0.9882770E-07  0.8984337E-07
  0.2037713E+01  0.9882770E-04  0.9882770E-06  0.9882770E-07  0.8984337E-07
  0.2110354E+01  0.9882770E-04  0.9882770E-06  0.9882770E-07  0.8984337E-07
  0.2181818E+01  0.9882770E-04  0.9882770E-06  0.9882770E-07  0.8984337E-07
  0.2254888E+01  0.9882770E-04  0.9882770E-06  0.9882770E-07  0.8984337E-07
  0.2329973E+01  0.9882770E-04  0.9882770E-06  0.9882770E-07  0.8984337E-07
  0.2406718E+01  0.9882770E-04  0.9882770E-06  0.9882770E-07  0.8984337E-07
  0.2483264E+01  0.9882770E-04  0.9882770E-06  0.9882770E-07  0.8984337E-07
  0.2561253E+01  0.9882770E-04  0.9882770E-06  0.9882770E-07  0.8984337E-07
  0.2641203E+01  0.9882770E-04  0.9882770E-06  0.9882770E-07  0.8984337E-07
  0.2723424E+01  0.9882770E-04  0.9882770E-06  0.9882770E-07  0.8984337E-07
  0.2805305E+01  0.9882770E-04  0.9882770E-06  0.9882770E-07  0.8984337E-07
  0.2888429E+01  0.9882770E-04  0.9882770E-06  0.9882770E-07  0.8984337E-07
  0.2972751E+01  0.9882770E-04  0.9882770E-06  0.9882770E-07  0.8984337E-07
  0.3059151E+01  0.9882770E-04  0.9882770E-06  0.9882770E-07  0.8984337E-07
  0.3148092E+01  0.9882770E-04  0.9882770E-06  0.9882770E-07  0.8984337E-07
  0.3236894E+01  0.9882770E-04  0.9882770E-06  0.9882770E-07  0.8984337E-07
  0.3326902E+01  0.9882770E-04  0.9882770E-06  0.9882770E-07  0.8984337E-07
  0.3417755E+01  0.9882770E-04  0.9882770E-06  0.9882770E-07  0.8984337E-07
  0.3509950E+01  0.9882770E-04  0.9882770E-06  0.9882770E-07  0.8984337E-07
  0.3603634E+01  0.9882770E-04  0.9882770E-06  0.9882770E-07  0.8984337E-07
  0.3699101E+01  0.9882770E-04  0.9882770E-06  0.9882770E-07  0.8984337E-07
  0.3796505E+01  0.9882770E-04  0.9882770E-06  0.9882770E-07  0.8984337E-07
  0.3895936E+01  0.9882770E-04  0.9882770E-06  0.9882770E-07  0.8984337E-07
  0.3996120E+01  0.9882770E-04  0.9882770E-06  0.9882770E-07  0.8984337E-07
  0.4097648E+01  0.9882770E-04  0.9882770E-06  0.9882770E-07  0.8984337E-07
  0.4200285E+01  0.9882770E-04  0.9882770E-06  0.9882770E-07  0.8984337E-07
  0.4304186E+01  0.9882770E-04  0.9882770E-06  0.9882770E-07  0.8984337E-07
  0.4409337E+01  0.9882770E-04  0.9882770E-06  0.9882770E-07  0.8984337E-07
  0.4515807E+01  0.9882770E-04  0.9882770E-06  0.9882770E-07  0.8984337E-07
  0.4623627E+01  0.9882770E-04  0.9882770E-06  0.9882770E-07  0.8984337E-07
  0.4732848E+01  0.9882770E-04  0.9882770E-06  0.9882770E-07  0.8984337E-07
  0.4843513E+01  0.9882770E-04  0.9882770E-06  0.9882770E-07  0.8984337E-07
  0.4955677E+01  0.9882770E-04  0.9882770E-06  0.9882770E-07  0.8984337E-07
  0.5000000E+01  0.9882770E-04  0.9882770E-06  0.9882770E-07  0.8984337E-07
  0.5082921E+01  0.9882770E-04  0.9882770E-06  0.9882770E-07  0.8984337E-07
  0.5207773E+01  0.9882770E-04  0.9882770E-06  0.9882770E-07  0.8984337E-07
  0.5317773E+01  0.9882770E-04  0.9882770E-06  0.9882770E-07  0.8984336E-07
  0.5438365E+01  0.9882770E-04  0.9882770E-06  0.9882770E-07  0.8984336E-07
  0.5555992E+01  0.9882770E-04  0.9882770E-06  0.9882770E-07  0.8984336E-07
  0.5677011E+01  0.9882770E-04  0.9882770E-06  0.9882770E-07  0.8984336E-07
  0.5798352E+01  0.9882770E-04  0.9882770E-06  0.9882770E-07  0.8984336E-07
  0.5921587E+01  0.9882770E-04  0.9882770E-06  0.9882770E-07  0.8984336E-07
  0.6046157E+01  0.9882770E-04  0.9882771E-06  0.9882770E-07  0.8984335E-07
  0.6172613E+01  0.9882770E-04  0.9882771E-06  0.9882769E-07  0.8984332E-07
  0.6301071E+01  0.9882770E-04  0.9882773E-06  0.9882767E-07  0.8984325E-07
  0.6431951E+01  0.9882770E-04  0.9882779E-06  0.9882762E-07  0.8984306E-07
  0.6563188E+01  0.9882770E-04  0.9882792E-06  0.9882748E-07  0.8984261E-07
  0.6695946E+01  0.9882770E-04  0.9882824E-06  0.9882715E-07  0.8984148E-07
  0.6830203E+01  0.9882769E-04  0.9882906E-06  0.9882633E-07  0.8983876E-07
  0.6966605E+01  0.9882768E-04  0.9883111E-06  0.9882425E-07  0.8983219E-07
  0.7105597E+01  0.9882765E-04  0.9883632E-06  0.9881898E-07  0.8981640E-07
  0.7244686E+01  0.9882757E-04  0.9884907E-06  0.9880608E-07  0.8978044E-07
  0.7385625E+01  0.9882737E-04  0.9888080E-06  0.9877397E-07  0.8969924E-07
  0.7528517E+01  0.9882683E-04  0.9896039E-06  0.9869346E-07  0.8952087E-07
  0.7674252E+01  0.9882537E-04  0.9916515E-06  0.9848676E-07  0.8913946E-07
  0.7819654E+01  0.9882153E-04  0.9967518E-06  0.9797518E-07  0.8839698E-07
  0.7967570E+01  0.9881096E-04  0.1009978E-05  0.9667149E-07  0.8704090E-07
  0.8117954E+01  0.9878140E-04  0.1044968E-05  0.9337857E-07  0.8489964E-07
  0.8268723E+01  0.9870054E-04  0.1135976E-05  0.8575707E-07  0.8237883E-07
  0.8421595E+01  0.9847612E-04  0.1377122E-05  0.7041893E-07  0.8099145E-07
  0.8577382E+01  0.9785618E-04  0.2018007E-05  0.4745192E-07  0.8301204E-07
  0.8733011E+01  0.9628904E-04  0.3601650E-05  0.2574259E-07  0.8821486E-07
  0.8891550E+01  0.9251856E-04  0.7380355E-05  0.1159793E-07  0.9414031E-07
  0.9051722E+01  0.8456617E-04  0.1533474E-04  0.4663552E-08  0.9907872E-07
  0.9212904E+01  0.7107961E-04  0.2881977E-04  0.1753072E-08  0.1035196E-06
  0.9377690E+01  0.5401941E-04  0.4587491E-04  0.6360986E-09  0.1096981E-06
  0.9541969E+01  0.3892708E-04  0.6094994E-04  0.2486168E-09  0.1273836E-06
  0.9710106E+01  0.2780513E-04  0.7200062E-04  0.1073776E-09  0.1987882E-06
  0.9878150E+01  0.2040237E-04  0.7917396E-04  0.5257495E-10  0.4282681E-06
  0.1000000E+02  0.1668177E-04  0.8258766E-04  0.3369530E-10  0.7351836E-06
  0.1018914E+02  0.1240438E-04  0.8566281E-04  0.1796214E-10  0.1937443E-05
  0.1036124E+02  0.9694222E-05  0.8647117E-04  0.1086812E-10  0.3839245E-05
  0.1057419E+02  0.7242331E-05  0.8504690E-04  0.6167345E-11  0.7715422E-05
  0.1082196E+02  0.5251929E-05  0.8101354E-04  0.3404710E-11  0.1373919E-04
  0.1113947E+02  0.3596741E-05  0.7439859E-04  0.1738816E-11  0.2200933E-04
  0.1156965E+02  0.2335112E-05  0.6658140E-04  0.8189599E-12  0.3108820E-04
  0.1220678E+02  0.1460639E-05  0.5938854E-04  0.3592385E-12  0.3915555E-04
  0.1325481E+02  0.9231091E-06  0.5417629E-04  0.1572884E-12  0.4490535E-04
  0.1500850E+02  0.6533651E-06  0.5137983E-04  0.8308433E-13  0.4797155E-04
  0.1794300E+02  0.5418408E-06  0.5022164E-04  0.5845915E-13  0.4924127E-04
  0.2000000E+02  0.5141947E-06  0.4994008E-04  0.5294268E-13  0.4955047E-04
  0.2444363E+02  0.5011174E-06  0.4981056E-04  0.5041474E-13  0.4969307E-04
  0.2944363E+02  0.4983623E-06  0.4978387E-04  0.4988865E-13  0.4972252E-04
  0.3444363E+02  0.4978778E-06  0.4977924E-04  0.4979632E-13  0.4972763E-04
  0.3944363E+02  0.4977980E-06  0.4977849E-04  0.4978111E-13  0.4972847E-04
  0.4444363E+02  0.4977856E-06  0.4977837E-04  0.4977875E-13  0.4972860E-04
  0.4944363E+02  0.4977838E-06  0.4977835E-04  0.4977841E-13  0.4972862E-04
  0.5000000E+02  0.4977837E-06  0.4977835E-04  0.4977838E-13  0.4972862E-04
