title = "dataset surfa2"
variables = "time","pH","ionic strength","C-Alk [eq/L]","NC-Alk [eq/L]","Alk [eq/L]","C-Alk [mg/L CaCO_3]","NC-Alk [mg/L CACO_3]",
"Alk [mg/L CaCO_3]","temperature"
zone t = "Master variables, volume =   101", f=point
  0.0000000E+00  0.6000000E+01  0.5550231E-06  0.0000000E+00  0.0000000E+00  0.0000000E+00  0.0000000E+00  0.0000000E+00  0.0000000E+00  0.2500000E+02
  0.2400000E-06  0.6000000E+01  0.5550231E-06  0.0000000E+00  0.0000000E+00  0.0000000E+00  0.0000000E+00  0.0000000E+00  0.0000000E+00  0.2500000E+02
  0.7584593E-06  0.6000000E+01  0.5550231E-06  0.0000000E+00  0.0000000E+00  0.0000000E+00  0.0000000E+00  0.0000000E+00  0.0000000E+00  0.2500000E+02
  0.1728408E-05  0.6000000E+01  0.5550231E-06  0.0000000E+00  0.0000000E+00  0.0000000E+00  0.0000000E+00  0.0000000E+00  0.0000000E+00  0.2500000E+02
  0.3543015E-05  0.6000000E+01  0.5550231E-06  0.0000000E+00  0.0000000E+00  0.0000000E+00  0.0000000E+00  0.0000000E+00  0.0000000E+00  0.2500000E+02
  0.6937835E-05  0.6000000E+01  0.5550231E-06  0.0000000E+00  0.0000000E+00  0.0000000E+00  0.0000000E+00  0.0000000E+00  0.0000000E+00  0.2500000E+02
  0.1328896E-04  0.6000000E+01  0.5550231E-06  0.0000000E+00  0.0000000E+00  0.0000000E+00  0.0000000E+00  0.0000000E+00  0.0000000E+00  0.2500000E+02
  0.2391643E-04  0.6000000E+01  0.5550231E-06  0.0000000E+00  0.0000000E+00  0.0000000E+00  0.0000000E+00  0.0000000E+00  0.0000000E+00  0.2500000E+02
  0.4169958E-04  0.6000000E+01  0.5550231E-06  0.0000000E+00  0.0000000E+00  0.0000000E+00  0.0000000E+00  0.0000000E+00  0.0000000E+00  0.2500000E+02
  0.7145648E-04  0.6000000E+01  0.5550231E-06  0.0000000E+00  0.0000000E+00  0.0000000E+00  0.0000000E+00  0.0000000E+00  0.0000000E+00  0.2500000E+02
  0.1212493E-03  0.6000000E+01  0.5550231E-06  0.0000000E+00  0.0000000E+00  0.0000000E+00  0.0000000E+00  0.0000000E+00  0.0000000E+00  0.2500000E+02
  0.2045686E-03  0.6000000E+01  0.5550231E-06  0.0000000E+00  0.0000000E+00  0.0000000E+00  0.0000000E+00  0.0000000E+00  0.0000000E+00  0.2500000E+02
  0.3439886E-03  0.6000000E+01  0.5550231E-06  0.0000000E+00  0.0000000E+00  0.0000000E+00  0.0000000E+00  0.0000000E+00  0.0000000E+00  0.2500000E+02
  0.5772827E-03  0.6000000E+01  0.5550231E-06  0.0000000E+00  0.0000000E+00  0.0000000E+00  0.0000000E+00  0.0000000E+00  0.0000000E+00  0.2500000E+02
  0.9625114E-03  0.6000000E+01  0.5550231E-06  0.0000000E+00  0.0000000E+00  0.0000000E+00  0.0000000E+00  0.0000000E+00  0.0000000E+00  0.2500000E+02
  0.1536719E-02  0.6000000E+01  0.5550231E-06  0.0000000E+00  0.0000000E+00  0.0000000E+00  0.0000000E+00  0.0000000E+00  0.0000000E+00  0.2500000E+02
  0.2395516E-02  0.6000000E+01  0.5550231E-06  0.0000000E+00  0.0000000E+00  0.0000000E+00  0.0000000E+00  0.0000000E+00  0.0000000E+00  0.2500000E+02
  0.3718126E-02  0.6000000E+01  0.5550231E-06  0.0000000E+00  0.0000000E+00  0.0000000E+00  0.0000000E+00  0.0000000E+00  0.0000000E+00  0.2500000E+02
  0.5499540E-02  0.6000000E+01  0.5550231E-06  0.0000000E+00  0.0000000E+00  0.0000000E+00  0.0000000E+00  0.0000000E+00  0.0000000E+00  0.2500000E+02
  0.7721586E-02  0.6000000E+01  0.5550231E-06  0.0000000E+00  0.0000000E+00  0.0000000E+00  0.0000000E+00  0.0000000E+00  0.0000000E+00  0.2500000E+02
  0.1063789E-01  0.6000000E+01  0.5550231E-06  0.0000000E+00  0.0000000E+00  0.0000000E+00  0.0000000E+00  0.0000000E+00  0.0000000E+00  0.2500000E+02
  0.1433588E-01  0.6000000E+01  0.5550231E-06  0.0000000E+00  0.0000000E+00  0.0000000E+00  0.0000000E+00  0.0000000E+00  0.0000000E+00  0.2500000E+02
  0.1895307E-01  0.6000000E+01  0.5550231E-06  0.0000000E+00  0.0000000E+00  0.0000000E+00  0.0000000E+00  0.0000000E+00  0.0000000E+00  0.2500000E+02
  0.2481645E-01  0.6000000E+01  0.5550231E-06  0.0000000E+00  0.0000000E+00  0.0000000E+00  0.0000000E+00  0.0000000E+00  0.0000000E+00  0.2500000E+02
  0.3151973E-01  0.6000000E+01  0.5550231E-06  0.0000000E+00  0.0000000E+00  0.0000000E+00  0.0000000E+00  0.0000000E+00  0.0000000E+00  0.2500000E+02
  0.3907545E-01  0.6000000E+01  0.5550231E-06  0.0000000E+00  0.0000000E+00  0.0000000E+00  0.0000000E+00  0.0000000E+00  0.0000000E+00  0.2500000E+02
  0.4786049E-01  0.6000000E+01  0.5550231E-06  0.0000000E+00  0.0000000E+00  0.0000000E+00  0.0000000E+00  0.0000000E+00  0.0000000E+00  0.2500000E+02
  0.5821595E-01  0.6000000E+01  0.5550231E-06  0.0000000E+00  0.0000000E+00  0.0000000E+00  0.0000000E+00  0.0000000E+00  0.0000000E+00  0.2500000E+02
  0.7003861E-01  0.6000000E+01  0.5550231E-06  0.0000000E+00  0.0000000E+00  0.0000000E+00  0.0000000E+00  0.0000000E+00  0.0000000E+00  0.2500000E+02
  0.8227679E-01  0.6000000E+01  0.5550231E-06  0.0000000E+00  0.0000000E+00  0.0000000E+00  0.0000000E+00  0.0000000E+00  0.0000000E+00  0.2500000E+02
  0.9617033E-01  0.6000000E+01  0.5550231E-06  0.0000000E+00  0.0000000E+00  0.0000000E+00  0.0000000E+00  0.0000000E+00  0.0000000E+00  0.2500000E+02
  0.1122736E+00  0.6000000E+01  0.5550231E-06  0.0000000E+00  0.0000000E+00  0.0000000E+00  0.0000000E+00  0.0000000E+00  0.0000000E+00  0.2500000E+02
  0.1284589E+00  0.6000000E+01  0.5550231E-06  0.0000000E+00  0.0000000E+00  0.0000000E+00  0.0000000E+00  0.0000000E+00  0.0000000E+00  0.2500000E+02
  0.1461635E+00  0.6000000E+01  0.5550231E-06  0.0000000E+00  0.0000000E+00  0.0000000E+00  0.0000000E+00  0.0000000E+00  0.0000000E+00  0.2500000E+02
  0.1661906E+00  0.6000000E+01  0.5550231E-06  0.0000000E+00  0.0000000E+00  0.0000000E+00  0.0000000E+00  0.0000000E+00  0.0000000E+00  0.2500000E+02
  0.1863511E+00  0.6000000E+01  0.5550231E-06  0.0000000E+00  0.0000000E+00  0.0000000E+00  0.0000000E+00  0.0000000E+00  0.0000000E+00  0.2500000E+02
  0.2079846E+00  0.6000000E+01  0.5550231E-06  0.0000000E+00  0.0000000E+00  0.0000000E+00  0.0000000E+00  0.0000000E+00  0.0000000E+00  0.2500000E+02
  0.2323946E+00  0.6000000E+01  0.5550231E-06  0.0000000E+00  0.0000000E+00  0.0000000E+00  0.0000000E+00  0.0000000E+00  0.0000000E+00  0.2500000E+02
  0.2560617E+00  0.6000000E+01  0.5550231E-06  0.0000000E+00  0.0000000E+00  0.0000000E+00  0.0000000E+00  0.0000000E+00  0.0000000E+00  0.2500000E+02
  0.2820855E+00  0.6000000E+01  0.5550231E-06  0.0000000E+00  0.0000000E+00  0.0000000E+00  0.0000000E+00  0.0000000E+00  0.0000000E+00  0.2500000E+02
  0.3099084E+00  0.6000000E+01  0.5550231E-06  0.0000000E+00  0.0000000E+00  0.0000000E+00  0.0000000E+00  0.0000000E+00  0.0000000E+00  0.2500000E+02
  0.3374534E+00  0.6000000E+01  0.5550231E-06  0.0000000E+00  0.0000000E+00  0.0000000E+00  0.0000000E+00  0.0000000E+00  0.0000000E+00  0.2500000E+02
  0.3683793E+00  0.6000000E+01  0.5550231E-06  0.0000000E+00  0.0000000E+00  0.0000000E+00  0.0000000E+00  0.0000000E+00  0.0000000E+00  0.2500000E+02
  0.3983464E+00  0.6000000E+01  0.5550231E-06  0.0000000E+00  0.0000000E+00  0.0000000E+00  0.0000000E+00  0.0000000E+00  0.0000000E+00  0.2500000E+02
  0.4309747E+00  0.6000000E+01  0.5550231E-06  0.0000000E+00  0.0000000E+00  0.0000000E+00  0.0000000E+00  0.0000000E+00  0.0000000E+00  0.2500000E+02
  0.4643237E+00  0.6000000E+01  0.5550231E-06  0.0000000E+00  0.0000000E+00  0.0000000E+00  0.0000000E+00  0.0000000E+00  0.0000000E+00  0.2500000E+02
  0.4985895E+00  0.6000000E+01  0.5550231E-06  0.0000000E+00  0.0000000E+00  0.0000000E+00  0.0000000E+00  0.0000000E+00  0.0000000E+00  0.2500000E+02
  0.5356990E+00  0.6000000E+01  0.5550231E-06  0.0000000E+00  0.0000000E+00  0.0000000E+00  0.0000000E+00  0.0000000E+00  0.0000000E+00  0.2500000E+02
  0.5717706E+00  0.6000000E+01  0.5550231E-06  0.0000000E+00  0.0000000E+00  0.0000000E+00  0.0000000E+00  0.0000000E+00  0.0000000E+00  0.2500000E+02
  0.6124625E+00  0.6000000E+01  0.5550231E-06  0.0000000E+00  0.0000000E+00  0.0000000E+00  0.0000000E+00  0.0000000E+00  0.0000000E+00  0.2500000E+02
  0.6506000E+00  0.6000000E+01  0.5550231E-06  0.0000000E+00  0.0000000E+00  0.0000000E+00  0.0000000E+00  0.0000000E+00  0.0000000E+00  0.2500000E+02
  0.6938266E+00  0.6000000E+01  0.5550231E-06  0.0000000E+00  0.0000000E+00  0.0000000E+00  0.0000000E+00  0.0000000E+00  0.0000000E+00  0.2500000E+02
  0.7344036E+00  0.6000000E+01  0.5550231E-06  0.0000000E+00  0.0000000E+00  0.0000000E+00  0.0000000E+00  0.0000000E+00  0.0000000E+00  0.2500000E+02
  0.7802280E+00  0.6000000E+01  0.5550231E-06  0.0000000E+00  0.0000000E+00  0.0000000E+00  0.0000000E+00  0.0000000E+00  0.0000000E+00  0.2500000E+02
  0.8232444E+00  0.6000000E+01  0.5550231E-06  0.0000000E+00  0.0000000E+00  0.0000000E+00  0.0000000E+00  0.0000000E+00  0.0000000E+00  0.2500000E+02
  0.8712821E+00  0.6000000E+01  0.5550231E-06  0.0000000E+00  0.0000000E+00  0.0000000E+00  0.0000000E+00  0.0000000E+00  0.0000000E+00  0.2500000E+02
  0.9169304E+00  0.6000000E+01  0.5550231E-06  0.0000000E+00  0.0000000E+00  0.0000000E+00  0.0000000E+00  0.0000000E+00  0.0000000E+00  0.2500000E+02
  0.9664039E+00  0.6000000E+01  0.5550231E-06  0.0000000E+00  0.0000000E+00  0.0000000E+00  0.0000000E+00  0.0000000E+00  0.0000000E+00  0.2500000E+02
  0.1015053E+01  0.6000000E+01  0.5550231E-06  0.0000000E+00  0.0000000E+00  0.0000000E+00  0.0000000E+00  0.0000000E+00  0.0000000E+00  0.2500000E+02
  0.1065769E+01  0.6000000E+01  0.5550231E-06  0.0000000E+00  0.0000000E+00  0.0000000E+00  0.0000000E+00  0.0000000E+00  0.0000000E+00  0.2500000E+02
  0.1117734E+01  0.6000000E+01  0.5550231E-06  0.0000000E+00  0.0000000E+00  0.0000000E+00  0.0000000E+00  0.0000000E+00  0.0000000E+00  0.2500000E+02
  0.1169843E+01  0.6000000E+01  0.5550231E-06  0.0000000E+00  0.0000000E+00  0.0000000E+00  0.0000000E+00  0.0000000E+00  0.0000000E+00  0.2500000E+02
  0.1225572E+01  0.6000000E+01  0.5550231E-06  0.0000000E+00  0.0000000E+00  0.0000000E+00  0.0000000E+00  0.0000000E+00  0.0000000E+00  0.2500000E+02
  0.1279536E+01  0.6000000E+01  0.5550231E-06  0.0000000E+00  0.0000000E+00  0.0000000E+00  0.0000000E+00  0.0000000E+00  0.0000000E+00  0.2500000E+02
  0.1337160E+01  0.6000000E+01  0.5550231E-06  0.0000000E+00  0.0000000E+00  0.0000000E+00  0.0000000E+00  0.0000000E+00  0.0000000E+00  0.2500000E+02
  0.1394405E+01  0.6000000E+01  0.5550231E-06  0.0000000E+00  0.0000000E+00  0.0000000E+00  0.0000000E+00  0.0000000E+00  0.0000000E+00  0.2500000E+02
  0.1452782E+01  0.6000000E+01  0.5550231E-06  0.0000000E+00  0.0000000E+00  0.0000000E+00  0.0000000E+00  0.0000000E+00  0.0000000E+00  0.2500000E+02
  0.1514620E+01  0.6000000E+01  0.5550231E-06  0.0000000E+00  0.0000000E+00  0.0000000E+00  0.0000000E+00  0.0000000E+00  0.0000000E+00  0.2500000E+02
  0.1574723E+01  0.6000000E+01  0.5550231E-06  0.0000000E+00  0.0000000E+00  0.0000000E+00  0.0000000E+00  0.0000000E+00  0.0000000E+00  0.2500000E+02
  0.1637413E+01  0.6000000E+01  0.5550231E-06  0.0000000E+00  0.0000000E+00  0.0000000E+00  0.0000000E+00  0.0000000E+00  0.0000000E+00  0.2500000E+02
  0.1702011E+01  0.6000000E+01  0.5550231E-06  0.0000000E+00  0.0000000E+00  0.0000000E+00  0.0000000E+00  0.0000000E+00  0.0000000E+00  0.2500000E+02
  0.1765908E+01  0.6000000E+01  0.5550231E-06  0.0000000E+00  0.0000000E+00  0.0000000E+00  0.0000000E+00  0.0000000E+00  0.0000000E+00  0.2500000E+02
  0.1832226E+01  0.6000000E+01  0.5550231E-06  0.0000000E+00  0.0000000E+00  0.0000000E+00  0.0000000E+00  0.0000000E+00  0.0000000E+00  0.2500000E+02
  0.1900440E+01  0.6000000E+01  0.5550231E-06  0.0000000E+00  0.0000000E+00  0.0000000E+00  0.0000000E+00  0.0000000E+00  0.0000000E+00  0.2500000E+02
  0.1968050E+01  0.6000000E+01  0.5550231E-06  0.0000000E+00  0.0000000E+00  0.0000000E+00  0.0000000E+00  0.0000000E+00  0.0000000E+00  0.2500000E+02
  0.2037713E+01  0.6000000E+01  0.5550231E-06  0.0000000E+00  0.0000000E+00  0.0000000E+00  0.0000000E+00  0.0000000E+00  0.0000000E+00  0.2500000E+02
  0.2110354E+01  0.6000000E+01  0.5550231E-06  0.0000000E+00  0.0000000E+00  0.0000000E+00  0.0000000E+00  0.0000000E+00  0.0000000E+00  0.2500000E+02
  0.2181818E+01  0.6000000E+01  0.5550231E-06  0.0000000E+00  0.0000000E+00  0.0000000E+00  0.0000000E+00  0.0000000E+00  0.0000000E+00  0.2500000E+02
  0.2254888E+01  0.6000000E+01  0.5550231E-06  0.0000000E+00  0.0000000E+00  0.0000000E+00  0.0000000E+00  0.0000000E+00  0.0000000E+00  0.2500000E+02
  0.2329973E+01  0.6000000E+01  0.5550231E-06  0.0000000E+00  0.0000000E+00  0.0000000E+00  0.0000000E+00  0.0000000E+00  0.0000000E+00  0.2500000E+02
  0.2406718E+01  0.6000000E+01  0.5550231E-06  0.0000000E+00  0.0000000E+00  0.0000000E+00  0.0000000E+00  0.0000000E+00  0.0000000E+00  0.2500000E+02
  0.2483264E+01  0.6000000E+01  0.5550231E-06  0.0000000E+00  0.0000000E+00  0.0000000E+00  0.0000000E+00  0.0000000E+00  0.0000000E+00  0.2500000E+02
  0.2561253E+01  0.6000000E+01  0.5550231E-06  0.0000000E+00  0.0000000E+00  0.0000000E+00  0.0000000E+00  0.0000000E+00  0.0000000E+00  0.2500000E+02
  0.2641203E+01  0.6000000E+01  0.5550231E-06  0.0000000E+00  0.0000000E+00  0.0000000E+00  0.0000000E+00  0.0000000E+00  0.0000000E+00  0.2500000E+02
  0.2723424E+01  0.6000000E+01  0.5550231E-06  0.0000000E+00  0.0000000E+00  0.0000000E+00  0.0000000E+00  0.0000000E+00  0.0000000E+00  0.2500000E+02
  0.2805305E+01  0.6000000E+01  0.5550231E-06  0.0000000E+00  0.0000000E+00  0.0000000E+00  0.0000000E+00  0.0000000E+00  0.0000000E+00  0.2500000E+02
  0.2888429E+01  0.6000000E+01  0.5550231E-06  0.0000000E+00  0.0000000E+00  0.0000000E+00  0.0000000E+00  0.0000000E+00  0.0000000E+00  0.2500000E+02
  0.2972751E+01  0.6000000E+01  0.5550231E-06  0.0000000E+00  0.0000000E+00  0.0000000E+00  0.0000000E+00  0.0000000E+00  0.0000000E+00  0.2500000E+02
  0.3059151E+01  0.6000000E+01  0.5550231E-06  0.0000000E+00  0.0000000E+00  0.0000000E+00  0.0000000E+00  0.0000000E+00  0.0000000E+00  0.2500000E+02
  0.3148092E+01  0.6000000E+01  0.5550231E-06  0.0000000E+00  0.0000000E+00  0.0000000E+00  0.0000000E+00  0.0000000E+00  0.0000000E+00  0.2500000E+02
  0.3236894E+01  0.6000000E+01  0.5550231E-06  0.0000000E+00  0.0000000E+00  0.0000000E+00  0.0000000E+00  0.0000000E+00  0.0000000E+00  0.2500000E+02
  0.3326902E+01  0.6000000E+01  0.5550231E-06  0.0000000E+00  0.0000000E+00  0.0000000E+00  0.0000000E+00  0.0000000E+00  0.0000000E+00  0.2500000E+02
  0.3417755E+01  0.6000000E+01  0.5550231E-06  0.0000000E+00  0.0000000E+00  0.0000000E+00  0.0000000E+00  0.0000000E+00  0.0000000E+00  0.2500000E+02
  0.3509950E+01  0.6000000E+01  0.5550231E-06  0.0000000E+00  0.0000000E+00  0.0000000E+00  0.0000000E+00  0.0000000E+00  0.0000000E+00  0.2500000E+02
  0.3603634E+01  0.6000000E+01  0.5550231E-06  0.0000000E+00  0.0000000E+00  0.0000000E+00  0.0000000E+00  0.0000000E+00  0.0000000E+00  0.2500000E+02
  0.3699101E+01  0.6000000E+01  0.5550231E-06  0.0000000E+00  0.0000000E+00  0.0000000E+00  0.0000000E+00  0.0000000E+00  0.0000000E+00  0.2500000E+02
  0.3796505E+01  0.6000000E+01  0.5550231E-06  0.0000000E+00  0.0000000E+00  0.0000000E+00  0.0000000E+00  0.0000000E+00  0.0000000E+00  0.2500000E+02
  0.3895936E+01  0.6000000E+01  0.5550231E-06  0.0000000E+00  0.0000000E+00  0.0000000E+00  0.0000000E+00  0.0000000E+00  0.0000000E+00  0.2500000E+02
  0.3996120E+01  0.6000000E+01  0.5550231E-06  0.0000000E+00  0.0000000E+00  0.0000000E+00  0.0000000E+00  0.0000000E+00  0.0000000E+00  0.2500000E+02
  0.4097648E+01  0.6000000E+01  0.5550231E-06  0.0000000E+00  0.0000000E+00  0.0000000E+00  0.0000000E+00  0.0000000E+00  0.0000000E+00  0.2500000E+02
  0.4200285E+01  0.6000000E+01  0.5550232E-06  0.0000000E+00  0.0000000E+00  0.0000000E+00  0.0000000E+00  0.0000000E+00  0.0000000E+00  0.2500000E+02
  0.4304186E+01  0.6000000E+01  0.5550234E-06  0.0000000E+00  0.0000000E+00  0.0000000E+00  0.0000000E+00  0.0000000E+00  0.0000000E+00  0.2500000E+02
  0.4409337E+01  0.6000000E+01  0.5550237E-06  0.0000000E+00  0.0000000E+00  0.0000000E+00  0.0000000E+00  0.0000000E+00  0.0000000E+00  0.2500000E+02
  0.4515807E+01  0.6000000E+01  0.5550243E-06  0.0000000E+00  0.0000000E+00  0.0000000E+00  0.0000000E+00  0.0000000E+00  0.0000000E+00  0.2500000E+02
  0.4623627E+01  0.6000000E+01  0.5550256E-06  0.0000000E+00  0.0000000E+00  0.0000000E+00  0.0000000E+00  0.0000000E+00  0.0000000E+00  0.2500000E+02
  0.4732848E+01  0.6000000E+01  0.5550283E-06  0.0000000E+00  0.0000000E+00  0.0000000E+00  0.0000000E+00  0.0000000E+00  0.0000000E+00  0.2500000E+02
  0.4843513E+01  0.6000000E+01  0.5550333E-06  0.0000000E+00  0.0000000E+00  0.0000000E+00  0.0000000E+00  0.0000000E+00  0.0000000E+00  0.2500000E+02
  0.4955677E+01  0.6000000E+01  0.5550431E-06  0.0000000E+00  0.0000000E+00  0.0000000E+00  0.0000000E+00  0.0000000E+00  0.0000000E+00  0.2500000E+02
  0.5000000E+01  0.6000000E+01  0.5550478E-06  0.0000000E+00  0.0000000E+00  0.0000000E+00  0.0000000E+00  0.0000000E+00  0.0000000E+00  0.2500000E+02
  0.5082921E+01  0.6000000E+01  0.5550612E-06  0.0000000E+00  0.0000000E+00  0.0000000E+00  0.0000000E+00  0.0000000E+00  0.0000000E+00  0.2500000E+02
  0.5207773E+01  0.6000000E+01  0.5551006E-06  0.0000000E+00  0.0000000E+00  0.0000000E+00  0.0000000E+00  0.0000000E+00  0.0000000E+00  0.2500000E+02
  0.5317773E+01  0.6000000E+01  0.5551604E-06  0.0000000E+00  0.0000000E+00  0.0000000E+00  0.0000000E+00  0.0000000E+00  0.0000000E+00  0.2500000E+02
  0.5438365E+01  0.6000000E+01  0.5552782E-06  0.0000000E+00  0.0000000E+00  0.0000000E+00  0.0000000E+00  0.0000000E+00  0.0000000E+00  0.2500000E+02
  0.5555992E+01  0.6000000E+01  0.5554756E-06  0.0000000E+00  0.0000000E+00  0.0000000E+00  0.0000000E+00  0.0000000E+00  0.0000000E+00  0.2500000E+02
  0.5677011E+01  0.6000000E+01  0.5558230E-06  0.0000000E+00  0.0000000E+00  0.0000000E+00  0.0000000E+00  0.0000000E+00  0.0000000E+00  0.2500000E+02
  0.5798352E+01  0.6000000E+01  0.5564057E-06  0.0000000E+00  0.0000000E+00  0.0000000E+00  0.0000000E+00  0.0000000E+00  0.0000000E+00  0.2500000E+02
  0.5921587E+01  0.6000000E+01  0.5573826E-06  0.0000000E+00  0.0000000E+00  0.0000000E+00  0.0000000E+00  0.0000000E+00  0.0000000E+00  0.2500000E+02
  0.6046157E+01  0.6000000E+01  0.5589868E-06  0.0000000E+00  0.0000000E+00  0.0000000E+00  0.0000000E+00  0.0000000E+00  0.0000000E+00  0.2500000E+02
  0.6172613E+01  0.6000000E+01  0.5615973E-06  0.0000000E+00  0.0000000E+00  0.0000000E+00  0.0000000E+00  0.0000000E+00  0.0000000E+00  0.2500000E+02
  0.6301071E+01  0.6000000E+01  0.5657943E-06  0.0000000E+00  0.0000000E+00  0.0000000E+00  0.0000000E+00  0.0000000E+00  0.0000000E+00  0.2500000E+02
  0.6431951E+01  0.6000000E+01  0.5724858E-06  0.0000000E+00  0.0000000E+00  0.0000000E+00  0.0000000E+00  0.0000000E+00  0.0000000E+00  0.2500000E+02
  0.6563188E+01  0.5999999E+01  0.5827811E-06  0.0000000E+00  0.0000000E+00  0.0000000E+00  0.0000000E+00  0.0000000E+00  0.0000000E+00  0.2500000E+02
  0.6695946E+01  0.5999998E+01  0.5985325E-06  0.0000000E+00  0.0000000E+00  0.0000000E+00  0.0000000E+00  0.0000000E+00  0.0000000E+00  0.2500000E+02
  0.6830203E+01  0.5999994E+01  0.6222821E-06  0.0000000E+00  0.0000000E+00  0.0000000E+00  0.0000000E+00  0.0000000E+00  0.0000000E+00  0.2500000E+02
  0.6966605E+01  0.5999985E+01  0.6578286E-06  0.0000000E+00  0.0000000E+00  0.0000000E+00  0.0000000E+00  0.0000000E+00  0.0000000E+00  0.2500000E+02
  0.7105597E+01  0.5999962E+01  0.7106209E-06  0.0000000E+00  0.0000000E+00  0.0000000E+00  0.0000000E+00  0.0000000E+00  0.0000000E+00  0.2500000E+02
  0.7244686E+01  0.5999906E+01  0.7862221E-06  0.0000000E+00  0.0000000E+00  0.0000000E+00  0.0000000E+00  0.0000000E+00  0.0000000E+00  0.2500000E+02
  0.7385625E+01  0.5999765E+01  0.8944991E-06  0.0000000E+00  0.0000000E+00  0.0000000E+00  0.0000000E+00  0.0000000E+00  0.0000000E+00  0.2500000E+02
  0.7528517E+01  0.5999413E+01  0.1047832E-05  0.0000000E+00  0.0000000E+00  0.0000000E+00  0.0000000E+00  0.0000000E+00  0.0000000E+00  0.2500000E+02
  0.7674252E+01  0.5998509E+01  0.1264263E-05  0.0000000E+00  0.0000000E+00  0.0000000E+00  0.0000000E+00  0.0000000E+00  0.0000000E+00  0.2500000E+02
  0.7819654E+01  0.5996265E+01  0.1558358E-05  0.0000000E+00  0.0000000E+00  0.0000000E+00  0.0000000E+00  0.0000000E+00  0.0000000E+00  0.2500000E+02
  0.7967570E+01  0.5990493E+01  0.1963024E-05  0.0000000E+00  0.0000000E+00  0.0000000E+00  0.0000000E+00  0.0000000E+00  0.0000000E+00  0.2500000E+02
  0.8117954E+01  0.5975572E+01  0.2517761E-05  0.0000000E+00  0.0000000E+00  0.0000000E+00  0.0000000E+00  0.0000000E+00  0.0000000E+00  0.2500000E+02
  0.8268723E+01  0.5938950E+01  0.3267755E-05  0.0000000E+00  0.0000000E+00  0.0000000E+00  0.0000000E+00  0.0000000E+00  0.0000000E+00  0.2500000E+02
  0.8421595E+01  0.5854358E+01  0.4312994E-05  0.0000000E+00  0.0000000E+00  0.0000000E+00  0.0000000E+00  0.0000000E+00  0.0000000E+00  0.2500000E+02
  0.8577382E+01  0.5685666E+01  0.5846031E-05  0.0000000E+00  0.0000000E+00  0.0000000E+00  0.0000000E+00  0.0000000E+00  0.0000000E+00  0.2500000E+02
  0.8733011E+01  0.5427075E+01  0.8197298E-05  0.0000000E+00  0.0000000E+00  0.0000000E+00  0.0000000E+00  0.0000000E+00  0.0000000E+00  0.2500000E+02
  0.8891550E+01  0.5098152E+01  0.1223776E-04  0.0000000E+00  0.0000000E+00  0.0000000E+00  0.0000000E+00  0.0000000E+00  0.0000000E+00  0.2500000E+02
  0.9051722E+01  0.4741520E+01  0.1970973E-04  0.0000000E+00  0.0000000E+00  0.0000000E+00  0.0000000E+00  0.0000000E+00  0.0000000E+00  0.2500000E+02
  0.9212904E+01  0.4392055E+01  0.3384785E-04  0.0000000E+00  0.0000000E+00  0.0000000E+00  0.0000000E+00  0.0000000E+00  0.0000000E+00  0.2500000E+02
  0.9377690E+01  0.4070975E+01  0.5965077E-04  0.0000000E+00  0.0000000E+00  0.0000000E+00  0.0000000E+00  0.0000000E+00  0.0000000E+00  0.2500000E+02
  0.9541969E+01  0.3805279E+01  0.9976049E-04  0.0000000E+00  0.0000000E+00  0.0000000E+00  0.0000000E+00  0.0000000E+00  0.0000000E+00  0.2500000E+02
  0.9710106E+01  0.3586789E+01  0.1561125E-03  0.0000000E+00  0.0000000E+00  0.0000000E+00  0.0000000E+00  0.0000000E+00  0.0000000E+00  0.2500000E+02
  0.9878150E+01  0.3411098E+01  0.2266743E-03  0.0000000E+00  0.0000000E+00  0.0000000E+00  0.0000000E+00  0.0000000E+00  0.0000000E+00  0.2500000E+02
  0.1000000E+02  0.3305327E+01  0.2849983E-03  0.0000000E+00  0.0000000E+00  0.0000000E+00  0.0000000E+00  0.0000000E+00  0.0000000E+00  0.2500000E+02
  0.1018914E+02  0.3160783E+01  0.3914039E-03  0.0000000E+00  0.0000000E+00  0.0000000E+00  0.0000000E+00  0.0000000E+00  0.0000000E+00  0.2500000E+02
  0.1036124E+02  0.3049642E+01  0.5009798E-03  0.0000000E+00  0.0000000E+00  0.0000000E+00  0.0000000E+00  0.0000000E+00  0.0000000E+00  0.2500000E+02
  0.1057419E+02  0.2930220E+01  0.6546713E-03  0.0000000E+00  0.0000000E+00  0.0000000E+00  0.0000000E+00  0.0000000E+00  0.0000000E+00  0.2500000E+02
  0.1082196E+02  0.2811761E+01  0.8554242E-03  0.0000000E+00  0.0000000E+00  0.0000000E+00  0.0000000E+00  0.0000000E+00  0.0000000E+00  0.2500000E+02
  0.1113947E+02  0.2684344E+01  0.1142760E-02  0.0000000E+00  0.0000000E+00  0.0000000E+00  0.0000000E+00  0.0000000E+00  0.0000000E+00  0.2500000E+02
  0.1156965E+02  0.2544955E+01  0.1571432E-02  0.0000000E+00  0.0000000E+00  0.0000000E+00  0.0000000E+00  0.0000000E+00  0.0000000E+00  0.2500000E+02
  0.1220678E+02  0.2390840E+01  0.2237891E-02  0.0000000E+00  0.0000000E+00  0.0000000E+00  0.0000000E+00  0.0000000E+00  0.0000000E+00  0.2500000E+02
  0.1325481E+02  0.2231444E+01  0.3228457E-02  0.0000000E+00  0.0000000E+00  0.0000000E+00  0.0000000E+00  0.0000000E+00  0.0000000E+00  0.2500000E+02
  0.1500850E+02  0.2104363E+01  0.4325231E-02  0.0000000E+00  0.0000000E+00  0.0000000E+00  0.0000000E+00  0.0000000E+00  0.0000000E+00  0.2500000E+02
  0.1794300E+02  0.2032981E+01  0.5097782E-02  0.0000000E+00  0.0000000E+00  0.0000000E+00  0.0000000E+00  0.0000000E+00  0.0000000E+00  0.2500000E+02
  0.2000000E+02  0.2012678E+01  0.5341748E-02  0.0000000E+00  0.0000000E+00  0.0000000E+00  0.0000000E+00  0.0000000E+00  0.0000000E+00  0.2500000E+02
  0.2444363E+02  0.2002618E+01  0.5466940E-02  0.0000000E+00  0.0000000E+00  0.0000000E+00  0.0000000E+00  0.0000000E+00  0.0000000E+00  0.2500000E+02
  0.2944363E+02  0.2000457E+01  0.5494220E-02  0.0000000E+00  0.0000000E+00  0.0000000E+00  0.0000000E+00  0.0000000E+00  0.0000000E+00  0.2500000E+02
  0.3444363E+02  0.2000074E+01  0.5499057E-02  0.0000000E+00  0.0000000E+00  0.0000000E+00  0.0000000E+00  0.0000000E+00  0.0000000E+00  0.2500000E+02
  0.3944363E+02  0.2000011E+01  0.5499855E-02  0.0000000E+00  0.0000000E+00  0.0000000E+00  0.0000000E+00  0.0000000E+00  0.0000000E+00  0.2500000E+02
  0.4444363E+02  0.2000002E+01  0.5499979E-02  0.0000000E+00  0.0000000E+00  0.0000000E+00  0.0000000E+00  0.0000000E+00  0.0000000E+00  0.2500000E+02
  0.4944363E+02  0.2000000E+01  0.5499997E-02  0.0000000E+00  0.0000000E+00  0.0000000E+00  0.0000000E+00  0.0000000E+00  0.0000000E+00  0.2500000E+02
  0.5000000E+02  0.2000000E+01  0.5499998E-02  0.0000000E+00  0.0000000E+00  0.0000000E+00  0.0000000E+00  0.0000000E+00  0.0000000E+00  0.2500000E+02
