title = "dataset surfa2"
variables = "x", "y", "z","h+1","ha","na+1","=soh"
zone t = "T_j, T =  5.000E+00 hours", i =  101, j =    1, k =    1,  f=point
  0.0000000E+00  0.0000000E+00  0.0000000E+00  0.9999001E-02  0.9999999E-03  0.1000000E-02  0.4977830E-06
  0.0000000E+00  0.0000000E+00  0.1600000E+00  0.9998999E-02  0.9999998E-03  0.9999998E-03  0.4977832E-06
  0.0000000E+00  0.0000000E+00  0.3200000E+00  0.9998996E-02  0.9999995E-03  0.9999995E-03  0.4977833E-06
  0.0000000E+00  0.0000000E+00  0.4800000E+00  0.9998989E-02  0.9999987E-03  0.9999988E-03  0.4977837E-06
  0.0000000E+00  0.0000000E+00  0.6400000E+00  0.9998974E-02  0.9999970E-03  0.9999973E-03  0.4977845E-06
  0.0000000E+00  0.0000000E+00  0.8000000E+00  0.9998942E-02  0.9999936E-03  0.9999941E-03  0.4977861E-06
  0.0000000E+00  0.0000000E+00  0.9600000E+00  0.9998880E-02  0.9999868E-03  0.9999879E-03  0.4977893E-06
  0.0000000E+00  0.0000000E+00  0.1120000E+01  0.9998762E-02  0.9999740E-03  0.9999762E-03  0.4977954E-06
  0.0000000E+00  0.0000000E+00  0.1280000E+01  0.9998548E-02  0.9999506E-03  0.9999548E-03  0.4978065E-06
  0.0000000E+00  0.0000000E+00  0.1440000E+01  0.9998169E-02  0.9999091E-03  0.9999170E-03  0.4978262E-06
  0.0000000E+00  0.0000000E+00  0.1600000E+01  0.9997518E-02  0.9998380E-03  0.9998522E-03  0.4978599E-06
  0.0000000E+00  0.0000000E+00  0.1760000E+01  0.9996433E-02  0.9997194E-03  0.9997440E-03  0.4979162E-06
  0.0000000E+00  0.0000000E+00  0.1920000E+01  0.9994672E-02  0.9995266E-03  0.9995684E-03  0.4980077E-06
  0.0000000E+00  0.0000000E+00  0.2080000E+01  0.9991886E-02  0.9992215E-03  0.9992906E-03  0.4981524E-06
  0.0000000E+00  0.0000000E+00  0.2240000E+01  0.9987589E-02  0.9987504E-03  0.9988622E-03  0.4983761E-06
  0.0000000E+00  0.0000000E+00  0.2400000E+01  0.9981118E-02  0.9980403E-03  0.9982171E-03  0.4987134E-06
  0.0000000E+00  0.0000000E+00  0.2560000E+01  0.9971597E-02  0.9969943E-03  0.9972680E-03  0.4992107E-06
  0.0000000E+00  0.0000000E+00  0.2720000E+01  0.9957902E-02  0.9954878E-03  0.9959027E-03  0.4999285E-06
  0.0000000E+00  0.0000000E+00  0.2880000E+01  0.9938626E-02  0.9933643E-03  0.9939810E-03  0.5009429E-06
  0.0000000E+00  0.0000000E+00  0.3040000E+01  0.9912060E-02  0.9904331E-03  0.9913326E-03  0.5023490E-06
  0.0000000E+00  0.0000000E+00  0.3200000E+01  0.9876190E-02  0.9864687E-03  0.9877566E-03  0.5042617E-06
  0.0000000E+00  0.0000000E+00  0.3360000E+01  0.9828710E-02  0.9812110E-03  0.9830233E-03  0.5068186E-06
  0.0000000E+00  0.0000000E+00  0.3520000E+01  0.9767063E-02  0.9743703E-03  0.9768778E-03  0.5101810E-06
  0.0000000E+00  0.0000000E+00  0.3680000E+01  0.9688508E-02  0.9656334E-03  0.9690466E-03  0.5145362E-06
  0.0000000E+00  0.0000000E+00  0.3840000E+01  0.9590212E-02  0.9546736E-03  0.9592476E-03  0.5200991E-06
  0.0000000E+00  0.0000000E+00  0.4000000E+01  0.9469372E-02  0.9411633E-03  0.9472011E-03  0.5271152E-06
  0.0000000E+00  0.0000000E+00  0.4160000E+01  0.9323349E-02  0.9247890E-03  0.9326444E-03  0.5358639E-06
  0.0000000E+00  0.0000000E+00  0.4320000E+01  0.9149821E-02  0.9052679E-03  0.9153460E-03  0.5466645E-06
  0.0000000E+00  0.0000000E+00  0.4480000E+01  0.8946932E-02  0.8823646E-03  0.8951211E-03  0.5598828E-06
  0.0000000E+00  0.0000000E+00  0.4640000E+01  0.8713436E-02  0.8559079E-03  0.8718458E-03  0.5759414E-06
  0.0000000E+00  0.0000000E+00  0.4800000E+01  0.8448816E-02  0.8258054E-03  0.8454692E-03  0.5953337E-06
  0.0000000E+00  0.0000000E+00  0.4960000E+01  0.8153376E-02  0.7920551E-03  0.8160225E-03  0.6186418E-06
  0.0000000E+00  0.0000000E+00  0.5120000E+01  0.7828291E-02  0.7547537E-03  0.7836242E-03  0.6465611E-06
  0.0000000E+00  0.0000000E+00  0.5280000E+01  0.7475613E-02  0.7140999E-03  0.7484806E-03  0.6799324E-06
  0.0000000E+00  0.0000000E+00  0.5440000E+01  0.7098233E-02  0.6703937E-03  0.7108825E-03  0.7197850E-06
  0.0000000E+00  0.0000000E+00  0.5600000E+01  0.6699789E-02  0.6240306E-03  0.6711960E-03  0.7673938E-06
  0.0000000E+00  0.0000000E+00  0.5760000E+01  0.6284543E-02  0.5754922E-03  0.6298507E-03  0.8243566E-06
  0.0000000E+00  0.0000000E+00  0.5920000E+01  0.5857223E-02  0.5253330E-03  0.5873238E-03  0.8926997E-06
  0.0000000E+00  0.0000000E+00  0.6080000E+01  0.5422839E-02  0.4741659E-03  0.5441224E-03  0.9750230E-06
  0.0000000E+00  0.0000000E+00  0.6240000E+01  0.4986494E-02  0.4226459E-03  0.5007649E-03  0.1074701E-05
  0.0000000E+00  0.0000000E+00  0.6400000E+01  0.4553193E-02  0.3714545E-03  0.4577621E-03  0.1196169E-05
  0.0000000E+00  0.0000000E+00  0.6560000E+01  0.4127663E-02  0.3212851E-03  0.4155996E-03  0.1345319E-05
  0.0000000E+00  0.0000000E+00  0.6720000E+01  0.3714197E-02  0.2728315E-03  0.3747231E-03  0.1530078E-05
  0.0000000E+00  0.0000000E+00  0.6880000E+01  0.3316527E-02  0.2267771E-03  0.3355253E-03  0.1761214E-05
  0.0000000E+00  0.0000000E+00  0.7040000E+01  0.2937734E-02  0.1837876E-03  0.2983370E-03  0.2053484E-05
  0.0000000E+00  0.0000000E+00  0.7200000E+01  0.2580189E-02  0.1445014E-03  0.2634213E-03  0.2427189E-05
  0.0000000E+00  0.0000000E+00  0.7360000E+01  0.2245553E-02  0.1095156E-03  0.2309714E-03  0.2910208E-05
  0.0000000E+00  0.0000000E+00  0.7520000E+01  0.1934815E-02  0.7935612E-04  0.2011113E-03  0.3540357E-05
  0.0000000E+00  0.0000000E+00  0.7680000E+01  0.1648398E-02  0.5442300E-04  0.1738996E-03  0.4367636E-05
  0.0000000E+00  0.0000000E+00  0.7840000E+01  0.1386311E-02  0.3490042E-04  0.1493352E-03  0.5455594E-05
  0.0000000E+00  0.0000000E+00  0.8000000E+01  0.1148356E-02  0.2064507E-04  0.1273646E-03  0.6881670E-05
  0.0000000E+00  0.0000000E+00  0.8160000E+01  0.9343009E-03  0.1110612E-04  0.1078908E-03  0.8739344E-05
  0.0000000E+00  0.0000000E+00  0.8320000E+01  0.7439547E-03  0.5359770E-05  0.9078166E-04  0.1114987E-04
  0.0000000E+00  0.0000000E+00  0.8480000E+01  0.5771153E-03  0.2294589E-05  0.7587919E-04  0.1429231E-04
  0.0000000E+00  0.0000000E+00  0.8640000E+01  0.4334679E-03  0.8685837E-06  0.6300773E-04  0.1845180E-04
  0.0000000E+00  0.0000000E+00  0.8800000E+01  0.3125765E-03  0.2976505E-06  0.5198172E-04  0.2407023E-04
  0.0000000E+00  0.0000000E+00  0.8960000E+01  0.2139938E-03  0.1020657E-06  0.4261235E-04  0.3175013E-04
  0.0000000E+00  0.0000000E+00  0.9120000E+01  0.1373177E-03  0.4325161E-07  0.3471319E-04  0.4206744E-04
  0.0000000E+00  0.0000000E+00  0.9280000E+01  0.8180816E-04  0.2602196E-07  0.2810467E-04  0.5493426E-04
  0.0000000E+00  0.0000000E+00  0.9440000E+01  0.4536846E-04  0.2051636E-07  0.2261740E-04  0.6871155E-04
  0.0000000E+00  0.0000000E+00  0.9600000E+01  0.2388515E-04  0.1946204E-07  0.1809464E-04  0.8062766E-04
  0.0000000E+00  0.0000000E+00  0.9760000E+01  0.1231140E-04  0.2165320E-07  0.1439364E-04  0.8893289E-04
  0.0000000E+00  0.0000000E+00  0.9920000E+01  0.6435727E-05  0.2738759E-07  0.1138641E-04  0.9383337E-04
  0.0000000E+00  0.0000000E+00  0.1008000E+02  0.3550974E-05  0.3699509E-07  0.8959728E-05  0.9643046E-04
  0.0000000E+00  0.0000000E+00  0.1024000E+02  0.2160265E-05  0.4966767E-07  0.7014729E-05  0.9771747E-04
  0.0000000E+00  0.0000000E+00  0.1040000E+02  0.1497160E-05  0.6319542E-07  0.5466098E-05  0.9832559E-04
  0.0000000E+00  0.0000000E+00  0.1056000E+02  0.1183083E-05  0.7518596E-07  0.4241034E-05  0.9860314E-04
  0.0000000E+00  0.0000000E+00  0.1072000E+02  0.1034587E-05  0.8435001E-07  0.3278074E-05  0.9872744E-04
  0.0000000E+00  0.0000000E+00  0.1088000E+02  0.9641633E-06  0.9062615E-07  0.2525838E-05  0.9878279E-04
  0.0000000E+00  0.0000000E+00  0.1104000E+02  0.9305568E-06  0.9459997E-07  0.1941789E-05  0.9880746E-04
  0.0000000E+00  0.0000000E+00  0.1120000E+02  0.9143987E-06  0.9697931E-07  0.1491026E-05  0.9881851E-04
  0.0000000E+00  0.0000000E+00  0.1136000E+02  0.9065707E-06  0.9834776E-07  0.1145164E-05  0.9882350E-04
  0.0000000E+00  0.0000000E+00  0.1152000E+02  0.9027520E-06  0.9911190E-07  0.8813101E-06  0.9882576E-04
  0.0000000E+00  0.0000000E+00  0.1168000E+02  0.9008780E-06  0.9952920E-07  0.6811503E-06  0.9882680E-04
  0.0000000E+00  0.0000000E+00  0.1184000E+02  0.8999539E-06  0.9975321E-07  0.5301447E-06  0.9882728E-04
  0.0000000E+00  0.0000000E+00  0.1200000E+02  0.8994964E-06  0.9987184E-07  0.4168375E-06  0.9882750E-04
  0.0000000E+00  0.0000000E+00  0.1216000E+02  0.8992694E-06  0.9993397E-07  0.3322676E-06  0.9882761E-04
  0.0000000E+00  0.0000000E+00  0.1232000E+02  0.8991565E-06  0.9996621E-07  0.2694745E-06  0.9882766E-04
  0.0000000E+00  0.0000000E+00  0.1248000E+02  0.8991003E-06  0.9998281E-07  0.2230884E-06  0.9882768E-04
  0.0000000E+00  0.0000000E+00  0.1264000E+02  0.8990724E-06  0.9999131E-07  0.1889937E-06  0.9882769E-04
  0.0000000E+00  0.0000000E+00  0.1280000E+02  0.8990584E-06  0.9999562E-07  0.1640564E-06  0.9882770E-04
  0.0000000E+00  0.0000000E+00  0.1296000E+02  0.8990515E-06  0.9999781E-07  0.1459049E-06  0.9882770E-04
  0.0000000E+00  0.0000000E+00  0.1312000E+02  0.8990481E-06  0.9999891E-07  0.1327552E-06  0.9882770E-04
  0.0000000E+00  0.0000000E+00  0.1328000E+02  0.8990464E-06  0.9999946E-07  0.1232732E-06  0.9882770E-04
  0.0000000E+00  0.0000000E+00  0.1344000E+02  0.8990456E-06  0.9999973E-07  0.1164670E-06  0.9882770E-04
  0.0000000E+00  0.0000000E+00  0.1360000E+02  0.8990452E-06  0.9999987E-07  0.1116035E-06  0.9882770E-04
  0.0000000E+00  0.0000000E+00  0.1376000E+02  0.8990449E-06  0.9999993E-07  0.1081433E-06  0.9882770E-04
  0.0000000E+00  0.0000000E+00  0.1392000E+02  0.8990448E-06  0.9999997E-07  0.1056923E-06  0.9882770E-04
  0.0000000E+00  0.0000000E+00  0.1408000E+02  0.8990448E-06  0.9999998E-07  0.1039634E-06  0.9882770E-04
  0.0000000E+00  0.0000000E+00  0.1424000E+02  0.8990448E-06  0.9999999E-07  0.1027490E-06  0.9882770E-04
  0.0000000E+00  0.0000000E+00  0.1440000E+02  0.8990448E-06  0.1000000E-06  0.1018995E-06  0.9882770E-04
  0.0000000E+00  0.0000000E+00  0.1456000E+02  0.8990448E-06  0.1000000E-06  0.1013076E-06  0.9882770E-04
  0.0000000E+00  0.0000000E+00  0.1472000E+02  0.8990448E-06  0.1000000E-06  0.1008969E-06  0.9882770E-04
  0.0000000E+00  0.0000000E+00  0.1488000E+02  0.8990448E-06  0.1000000E-06  0.1006129E-06  0.9882770E-04
  0.0000000E+00  0.0000000E+00  0.1504000E+02  0.8990448E-06  0.1000000E-06  0.1004174E-06  0.9882770E-04
  0.0000000E+00  0.0000000E+00  0.1520000E+02  0.8990448E-06  0.1000000E-06  0.1002832E-06  0.9882770E-04
  0.0000000E+00  0.0000000E+00  0.1536000E+02  0.8990448E-06  0.1000000E-06  0.1001915E-06  0.9882770E-04
  0.0000000E+00  0.0000000E+00  0.1552000E+02  0.8990448E-06  0.1000000E-06  0.1001291E-06  0.9882770E-04
  0.0000000E+00  0.0000000E+00  0.1568000E+02  0.8990448E-06  0.1000000E-06  0.1000870E-06  0.9882770E-04
  0.0000000E+00  0.0000000E+00  0.1584000E+02  0.8990448E-06  0.1000000E-06  0.1000598E-06  0.9882770E-04
  0.0000000E+00  0.0000000E+00  0.1600000E+02  0.8990448E-06  0.1000000E-06  0.1000494E-06  0.9882770E-04
