# Units: Log10 mol/kgw
 TITLE = " Years"
VARIABLES = "X (meters)", "Cl-       ", "
 ZONE F=POINT,I=         101
 5.00000E-02              -3.48400E+00
 1.50000E-01              -3.48093E+00
 2.50000E-01              -3.47485E+00
 3.50000E-01              -3.46590E+00
 4.50000E-01              -3.45427E+00
 5.50000E-01              -3.44017E+00
 6.50000E-01              -3.42389E+00
 7.50000E-01              -3.40568E+00
 8.50000E-01              -3.38583E+00
 9.50000E-01              -3.36463E+00
 1.05000E+00              -3.34233E+00
 1.15000E+00              -3.31918E+00
 1.25000E+00              -3.29542E+00
 1.35000E+00              -3.27124E+00
 1.45000E+00              -3.24683E+00
 1.55000E+00              -3.22235E+00
 1.65000E+00              -3.19793E+00
 1.75000E+00              -3.17370E+00
 1.85000E+00              -3.14976E+00
 1.95000E+00              -3.12619E+00
 2.05000E+00              -3.10307E+00
 2.15000E+00              -3.08047E+00
 2.25000E+00              -3.05843E+00
 2.35000E+00              -3.03701E+00
 2.45000E+00              -3.01624E+00
 2.55000E+00              -2.99615E+00
 2.65000E+00              -2.97678E+00
 2.75000E+00              -2.95813E+00
 2.85000E+00              -2.94024E+00
 2.95000E+00              -2.92312E+00
 3.05000E+00              -2.90677E+00
 3.15000E+00              -2.89123E+00
 3.25000E+00              -2.87648E+00
 3.35000E+00              -2.86255E+00
 3.45000E+00              -2.84944E+00
 3.55000E+00              -2.83716E+00
 3.65000E+00              -2.82570E+00
 3.75000E+00              -2.81508E+00
 3.85000E+00              -2.80530E+00
 3.95000E+00              -2.79636E+00
 4.05000E+00              -2.78826E+00
 4.15000E+00              -2.78101E+00
 4.25000E+00              -2.77461E+00
 4.35000E+00              -2.76907E+00
 4.45000E+00              -2.76437E+00
 4.55000E+00              -2.76053E+00
 4.65000E+00              -2.75754E+00
 4.75000E+00              -2.75540E+00
 4.85000E+00              -2.75412E+00
 4.95000E+00              -2.75370E+00
 5.05000E+00              -2.75413E+00
 5.15000E+00              -2.75542E+00
 5.25000E+00              -2.75756E+00
 5.35000E+00              -2.76056E+00
 5.45000E+00              -2.76442E+00
 5.55000E+00              -2.76913E+00
 5.65000E+00              -2.77469E+00
 5.75000E+00              -2.78111E+00
 5.85000E+00              -2.78838E+00
 5.95000E+00              -2.79649E+00
 6.05000E+00              -2.80546E+00
 6.15000E+00              -2.81527E+00
 6.25000E+00              -2.82593E+00
 6.35000E+00              -2.83743E+00
 6.45000E+00              -2.84977E+00
 6.55000E+00              -2.86295E+00
 6.65000E+00              -2.87695E+00
 6.75000E+00              -2.89178E+00
 6.85000E+00              -2.90744E+00
 6.95000E+00              -2.92390E+00
 7.05000E+00              -2.94118E+00
 7.15000E+00              -2.95925E+00
 7.25000E+00              -2.97810E+00
 7.35000E+00              -2.99773E+00
 7.45000E+00              -3.01812E+00
 7.55000E+00              -3.03925E+00
 7.65000E+00              -3.06109E+00
 7.75000E+00              -3.08363E+00
 7.85000E+00              -3.10683E+00
 7.95000E+00              -3.13066E+00
 8.05000E+00              -3.15507E+00
 8.15000E+00              -3.18000E+00
 8.25000E+00              -3.20541E+00
 8.35000E+00              -3.23120E+00
 8.45000E+00              -3.25730E+00
 8.55000E+00              -3.28360E+00
 8.65000E+00              -3.30998E+00
 8.75000E+00              -3.33629E+00
 8.85000E+00              -3.36237E+00
 8.95000E+00              -3.38804E+00
 9.05000E+00              -3.41307E+00
 9.15000E+00              -3.43721E+00
 9.25000E+00              -3.46021E+00
 9.35000E+00              -3.48177E+00
 9.45000E+00              -3.50159E+00
 9.55000E+00              -3.51935E+00
 9.65000E+00              -3.53474E+00
 9.75000E+00              -3.54746E+00
 9.85000E+00              -3.55726E+00
 9.95000E+00              -3.56392E+00
 1.00500E+01              -3.56729E+00
