# Units: Log10 mol/kgw
 TITLE = " Years"
VARIABLES = "X (meters)", "Cl-       ", "
 ZONE F=POINT,I=         101
 5.00000E-02              -3.89866E+00
 1.50000E-01              -3.89139E+00
 2.50000E-01              -3.87716E+00
 3.50000E-01              -3.85657E+00
 4.50000E-01              -3.83039E+00
 5.50000E-01              -3.79952E+00
 6.50000E-01              -3.76486E+00
 7.50000E-01              -3.72728E+00
 8.50000E-01              -3.68754E+00
 9.50000E-01              -3.64633E+00
 1.05000E+00              -3.60420E+00
 1.15000E+00              -3.56161E+00
 1.25000E+00              -3.51894E+00
 1.35000E+00              -3.47648E+00
 1.45000E+00              -3.43446E+00
 1.55000E+00              -3.39306E+00
 1.65000E+00              -3.35242E+00
 1.75000E+00              -3.31266E+00
 1.85000E+00              -3.27385E+00
 1.95000E+00              -3.23606E+00
 2.05000E+00              -3.19934E+00
 2.15000E+00              -3.16373E+00
 2.25000E+00              -3.12926E+00
 2.35000E+00              -3.09595E+00
 2.45000E+00              -3.06383E+00
 2.55000E+00              -3.03291E+00
 2.65000E+00              -3.00320E+00
 2.75000E+00              -2.97472E+00
 2.85000E+00              -2.94746E+00
 2.95000E+00              -2.92144E+00
 3.05000E+00              -2.89666E+00
 3.15000E+00              -2.87313E+00
 3.25000E+00              -2.85085E+00
 3.35000E+00              -2.82983E+00
 3.45000E+00              -2.81007E+00
 3.55000E+00              -2.79157E+00
 3.65000E+00              -2.77434E+00
 3.75000E+00              -2.75837E+00
 3.85000E+00              -2.74367E+00
 3.95000E+00              -2.73025E+00
 4.05000E+00              -2.71810E+00
 4.15000E+00              -2.70722E+00
 4.25000E+00              -2.69762E+00
 4.35000E+00              -2.68930E+00
 4.45000E+00              -2.68226E+00
 4.55000E+00              -2.67649E+00
 4.65000E+00              -2.67201E+00
 4.75000E+00              -2.66880E+00
 4.85000E+00              -2.66688E+00
 4.95000E+00              -2.66624E+00
 5.05000E+00              -2.66688E+00
 5.15000E+00              -2.66880E+00
 5.25000E+00              -2.67201E+00
 5.35000E+00              -2.67649E+00
 5.45000E+00              -2.68226E+00
 5.55000E+00              -2.68930E+00
 5.65000E+00              -2.69762E+00
 5.75000E+00              -2.70722E+00
 5.85000E+00              -2.71810E+00
 5.95000E+00              -2.73025E+00
 6.05000E+00              -2.74368E+00
 6.15000E+00              -2.75838E+00
 6.25000E+00              -2.77435E+00
 6.35000E+00              -2.79159E+00
 6.45000E+00              -2.81009E+00
 6.55000E+00              -2.82986E+00
 6.65000E+00              -2.85089E+00
 6.75000E+00              -2.87318E+00
 6.85000E+00              -2.89672E+00
 6.95000E+00              -2.92151E+00
 7.05000E+00              -2.94756E+00
 7.15000E+00              -2.97484E+00
 7.25000E+00              -3.00337E+00
 7.35000E+00              -3.03312E+00
 7.45000E+00              -3.06411E+00
 7.55000E+00              -3.09631E+00
 7.65000E+00              -3.12973E+00
 7.75000E+00              -3.16434E+00
 7.85000E+00              -3.20013E+00
 7.95000E+00              -3.23709E+00
 8.05000E+00              -3.27520E+00
 8.15000E+00              -3.31442E+00
 8.25000E+00              -3.35472E+00
 8.35000E+00              -3.39605E+00
 8.45000E+00              -3.43835E+00
 8.55000E+00              -3.48155E+00
 8.65000E+00              -3.52553E+00
 8.75000E+00              -3.57016E+00
 8.85000E+00              -3.61527E+00
 8.95000E+00              -3.66063E+00
 9.05000E+00              -3.70593E+00
 9.15000E+00              -3.75081E+00
 9.25000E+00              -3.79478E+00
 9.35000E+00              -3.83727E+00
 9.45000E+00              -3.87756E+00
 9.55000E+00              -3.91481E+00
 9.65000E+00              -3.94808E+00
 9.75000E+00              -3.97636E+00
 9.85000E+00              -3.99868E+00
 9.95000E+00              -4.01412E+00
 1.00500E+01              -4.02203E+00
