# Units: Log10 mol/kgw
 TITLE = " Years"
VARIABLES = "X (meters)", "Cl-       ", "
 ZONE F=POINT,I=         101
 5.00000E-02              -5.22894E+00
 1.50000E-01              -5.20000E+00
 2.50000E-01              -5.14614E+00
 3.50000E-01              -5.07356E+00
 4.50000E-01              -4.98853E+00
 5.50000E-01              -4.89610E+00
 6.50000E-01              -4.79986E+00
 7.50000E-01              -4.70218E+00
 8.50000E-01              -4.60454E+00
 9.50000E-01              -4.50782E+00
 1.05000E+00              -4.41256E+00
 1.15000E+00              -4.31911E+00
 1.25000E+00              -4.22764E+00
 1.35000E+00              -4.13829E+00
 1.45000E+00              -4.05112E+00
 1.55000E+00              -3.96620E+00
 1.65000E+00              -3.88354E+00
 1.75000E+00              -3.80318E+00
 1.85000E+00              -3.72514E+00
 1.95000E+00              -3.64944E+00
 2.05000E+00              -3.57608E+00
 2.15000E+00              -3.50509E+00
 2.25000E+00              -3.43648E+00
 2.35000E+00              -3.37025E+00
 2.45000E+00              -3.30642E+00
 2.55000E+00              -3.24501E+00
 2.65000E+00              -3.18601E+00
 2.75000E+00              -3.12945E+00
 2.85000E+00              -3.07533E+00
 2.95000E+00              -3.02366E+00
 3.05000E+00              -2.97445E+00
 3.15000E+00              -2.92772E+00
 3.25000E+00              -2.88345E+00
 3.35000E+00              -2.84168E+00
 3.45000E+00              -2.80240E+00
 3.55000E+00              -2.76561E+00
 3.65000E+00              -2.73134E+00
 3.75000E+00              -2.69958E+00
 3.85000E+00              -2.67033E+00
 3.95000E+00              -2.64362E+00
 4.05000E+00              -2.61943E+00
 4.15000E+00              -2.59777E+00
 4.25000E+00              -2.57866E+00
 4.35000E+00              -2.56208E+00
 4.45000E+00              -2.54805E+00
 4.55000E+00              -2.53657E+00
 4.65000E+00              -2.52764E+00
 4.75000E+00              -2.52125E+00
 4.85000E+00              -2.51742E+00
 4.95000E+00              -2.51615E+00
 5.05000E+00              -2.51742E+00
 5.15000E+00              -2.52125E+00
 5.25000E+00              -2.52764E+00
 5.35000E+00              -2.53657E+00
 5.45000E+00              -2.54805E+00
 5.55000E+00              -2.56208E+00
 5.65000E+00              -2.57866E+00
 5.75000E+00              -2.59777E+00
 5.85000E+00              -2.61943E+00
 5.95000E+00              -2.64362E+00
 6.05000E+00              -2.67033E+00
 6.15000E+00              -2.69958E+00
 6.25000E+00              -2.73134E+00
 6.35000E+00              -2.76561E+00
 6.45000E+00              -2.80240E+00
 6.55000E+00              -2.84168E+00
 6.65000E+00              -2.88345E+00
 6.75000E+00              -2.92772E+00
 6.85000E+00              -2.97445E+00
 6.95000E+00              -3.02366E+00
 7.05000E+00              -3.07533E+00
 7.15000E+00              -3.12945E+00
 7.25000E+00              -3.18601E+00
 7.35000E+00              -3.24501E+00
 7.45000E+00              -3.30643E+00
 7.55000E+00              -3.37025E+00
 7.65000E+00              -3.43648E+00
 7.75000E+00              -3.50510E+00
 7.85000E+00              -3.57609E+00
 7.95000E+00              -3.64945E+00
 8.05000E+00              -3.72516E+00
 8.15000E+00              -3.80321E+00
 8.25000E+00              -3.88359E+00
 8.35000E+00              -3.96627E+00
 8.45000E+00              -4.05125E+00
 8.55000E+00              -4.13851E+00
 8.65000E+00              -4.22802E+00
 8.75000E+00              -4.31974E+00
 8.85000E+00              -4.41364E+00
 8.95000E+00              -4.50965E+00
 9.05000E+00              -4.60765E+00
 9.15000E+00              -4.70747E+00
 9.25000E+00              -4.80881E+00
 9.35000E+00              -4.91115E+00
 9.45000E+00              -5.01363E+00
 9.55000E+00              -5.11480E+00
 9.65000E+00              -5.21227E+00
 9.75000E+00              -5.30234E+00
 9.85000E+00              -5.37961E+00
 9.95000E+00              -5.43726E+00
 1.00500E+01              -5.46837E+00
