# Units: Log10 mol/kgw
 TITLE = " Years"
VARIABLES = "X (meters)", "Cl-       ", "
 ZONE F=POINT,I=         101
 5.00000E-02              -3.29332E+00
 1.50000E-01              -3.29170E+00
 2.50000E-01              -3.28849E+00
 3.50000E-01              -3.28373E+00
 4.50000E-01              -3.27749E+00
 5.50000E-01              -3.26985E+00
 6.50000E-01              -3.26091E+00
 7.50000E-01              -3.25076E+00
 8.50000E-01              -3.23954E+00
 9.50000E-01              -3.22736E+00
 1.05000E+00              -3.21435E+00
 1.15000E+00              -3.20062E+00
 1.25000E+00              -3.18630E+00
 1.35000E+00              -3.17151E+00
 1.45000E+00              -3.15635E+00
 1.55000E+00              -3.14092E+00
 1.65000E+00              -3.12533E+00
 1.75000E+00              -3.10965E+00
 1.85000E+00              -3.09398E+00
 1.95000E+00              -3.07838E+00
 2.05000E+00              -3.06291E+00
 2.15000E+00              -3.04765E+00
 2.25000E+00              -3.03264E+00
 2.35000E+00              -3.01792E+00
 2.45000E+00              -3.00355E+00
 2.55000E+00              -2.98955E+00
 2.65000E+00              -2.97597E+00
 2.75000E+00              -2.96283E+00
 2.85000E+00              -2.95015E+00
 2.95000E+00              -2.93796E+00
 3.05000E+00              -2.92627E+00
 3.15000E+00              -2.91511E+00
 3.25000E+00              -2.90450E+00
 3.35000E+00              -2.89443E+00
 3.45000E+00              -2.88494E+00
 3.55000E+00              -2.87602E+00
 3.65000E+00              -2.86768E+00
 3.75000E+00              -2.85994E+00
 3.85000E+00              -2.85279E+00
 3.95000E+00              -2.84625E+00
 4.05000E+00              -2.84032E+00
 4.15000E+00              -2.83501E+00
 4.25000E+00              -2.83032E+00
 4.35000E+00              -2.82625E+00
 4.45000E+00              -2.82280E+00
 4.55000E+00              -2.81998E+00
 4.65000E+00              -2.81779E+00
 4.75000E+00              -2.81624E+00
 4.85000E+00              -2.81531E+00
 4.95000E+00              -2.81502E+00
 5.05000E+00              -2.81536E+00
 5.15000E+00              -2.81633E+00
 5.25000E+00              -2.81794E+00
 5.35000E+00              -2.82018E+00
 5.45000E+00              -2.82305E+00
 5.55000E+00              -2.82656E+00
 5.65000E+00              -2.83070E+00
 5.75000E+00              -2.83546E+00
 5.85000E+00              -2.84085E+00
 5.95000E+00              -2.84687E+00
 6.05000E+00              -2.85350E+00
 6.15000E+00              -2.86075E+00
 6.25000E+00              -2.86862E+00
 6.35000E+00              -2.87709E+00
 6.45000E+00              -2.88617E+00
 6.55000E+00              -2.89584E+00
 6.65000E+00              -2.90611E+00
 6.75000E+00              -2.91695E+00
 6.85000E+00              -2.92836E+00
 6.95000E+00              -2.94034E+00
 7.05000E+00              -2.95286E+00
 7.15000E+00              -2.96591E+00
 7.25000E+00              -2.97948E+00
 7.35000E+00              -2.99354E+00
 7.45000E+00              -3.00807E+00
 7.55000E+00              -3.02306E+00
 7.65000E+00              -3.03847E+00
 7.75000E+00              -3.05426E+00
 7.85000E+00              -3.07040E+00
 7.95000E+00              -3.08685E+00
 8.05000E+00              -3.10356E+00
 8.15000E+00              -3.12047E+00
 8.25000E+00              -3.13753E+00
 8.35000E+00              -3.15467E+00
 8.45000E+00              -3.17181E+00
 8.55000E+00              -3.18886E+00
 8.65000E+00              -3.20574E+00
 8.75000E+00              -3.22233E+00
 8.85000E+00              -3.23854E+00
 8.95000E+00              -3.25424E+00
 9.05000E+00              -3.26930E+00
 9.15000E+00              -3.28360E+00
 9.25000E+00              -3.29699E+00
 9.35000E+00              -3.30935E+00
 9.45000E+00              -3.32053E+00
 9.55000E+00              -3.33040E+00
 9.65000E+00              -3.33884E+00
 9.75000E+00              -3.34573E+00
 9.85000E+00              -3.35099E+00
 9.95000E+00              -3.35454E+00
 1.00500E+01              -3.35633E+00
