# Units: Log10 mol/kgw
 TITLE = " Years"
VARIABLES = "X (meters)", "Cl-       ", "
 ZONE F=POINT,I=         101
 5.00000E-02              -3.18881E+00
 1.50000E-01              -3.18786E+00
 2.50000E-01              -3.18596E+00
 3.50000E-01              -3.18314E+00
 4.50000E-01              -3.17941E+00
 5.50000E-01              -3.17483E+00
 6.50000E-01              -3.16943E+00
 7.50000E-01              -3.16327E+00
 8.50000E-01              -3.15639E+00
 9.50000E-01              -3.14886E+00
 1.05000E+00              -3.14074E+00
 1.15000E+00              -3.13209E+00
 1.25000E+00              -3.12298E+00
 1.35000E+00              -3.11347E+00
 1.45000E+00              -3.10364E+00
 1.55000E+00              -3.09353E+00
 1.65000E+00              -3.08322E+00
 1.75000E+00              -3.07275E+00
 1.85000E+00              -3.06219E+00
 1.95000E+00              -3.05158E+00
 2.05000E+00              -3.04098E+00
 2.15000E+00              -3.03043E+00
 2.25000E+00              -3.01997E+00
 2.35000E+00              -3.00965E+00
 2.45000E+00              -2.99949E+00
 2.55000E+00              -2.98954E+00
 2.65000E+00              -2.97982E+00
 2.75000E+00              -2.97036E+00
 2.85000E+00              -2.96119E+00
 2.95000E+00              -2.95232E+00
 3.05000E+00              -2.94379E+00
 3.15000E+00              -2.93560E+00
 3.25000E+00              -2.92778E+00
 3.35000E+00              -2.92035E+00
 3.45000E+00              -2.91330E+00
 3.55000E+00              -2.90667E+00
 3.65000E+00              -2.90045E+00
 3.75000E+00              -2.89467E+00
 3.85000E+00              -2.88932E+00
 3.95000E+00              -2.88441E+00
 4.05000E+00              -2.87996E+00
 4.15000E+00              -2.87597E+00
 4.25000E+00              -2.87244E+00
 4.35000E+00              -2.86938E+00
 4.45000E+00              -2.86679E+00
 4.55000E+00              -2.86468E+00
 4.65000E+00              -2.86305E+00
 4.75000E+00              -2.86190E+00
 4.85000E+00              -2.86123E+00
 4.95000E+00              -2.86105E+00
 5.05000E+00              -2.86135E+00
 5.15000E+00              -2.86214E+00
 5.25000E+00              -2.86341E+00
 5.35000E+00              -2.86517E+00
 5.45000E+00              -2.86741E+00
 5.55000E+00              -2.87014E+00
 5.65000E+00              -2.87334E+00
 5.75000E+00              -2.87703E+00
 5.85000E+00              -2.88119E+00
 5.95000E+00              -2.88582E+00
 6.05000E+00              -2.89092E+00
 6.15000E+00              -2.89648E+00
 6.25000E+00              -2.90249E+00
 6.35000E+00              -2.90895E+00
 6.45000E+00              -2.91586E+00
 6.55000E+00              -2.92320E+00
 6.65000E+00              -2.93096E+00
 6.75000E+00              -2.93914E+00
 6.85000E+00              -2.94772E+00
 6.95000E+00              -2.95668E+00
 7.05000E+00              -2.96602E+00
 7.15000E+00              -2.97571E+00
 7.25000E+00              -2.98573E+00
 7.35000E+00              -2.99607E+00
 7.45000E+00              -3.00671E+00
 7.55000E+00              -3.01761E+00
 7.65000E+00              -3.02874E+00
 7.75000E+00              -3.04009E+00
 7.85000E+00              -3.05160E+00
 7.95000E+00              -3.06325E+00
 8.05000E+00              -3.07499E+00
 8.15000E+00              -3.08678E+00
 8.25000E+00              -3.09857E+00
 8.35000E+00              -3.11031E+00
 8.45000E+00              -3.12194E+00
 8.55000E+00              -3.13340E+00
 8.65000E+00              -3.14464E+00
 8.75000E+00              -3.15557E+00
 8.85000E+00              -3.16614E+00
 8.95000E+00              -3.17628E+00
 9.05000E+00              -3.18591E+00
 9.15000E+00              -3.19496E+00
 9.25000E+00              -3.20336E+00
 9.35000E+00              -3.21103E+00
 9.45000E+00              -3.21791E+00
 9.55000E+00              -3.22394E+00
 9.65000E+00              -3.22906E+00
 9.75000E+00              -3.23323E+00
 9.85000E+00              -3.23638E+00
 9.95000E+00              -3.23851E+00
 1.00500E+01              -3.23958E+00
