# Units: Mol/kgw
 TITLE = " Years"
VARIABLES = "X (meters)", "Cl-       ", "
 ZONE F=POINT,I=         101
 5.00000E-02               6.47422E-04
 1.50000E-01               6.48846E-04
 2.50000E-01               6.51689E-04
 3.50000E-01               6.55940E-04
 4.50000E-01               6.61585E-04
 5.50000E-01               6.68602E-04
 6.50000E-01               6.76966E-04
 7.50000E-01               6.86647E-04
 8.50000E-01               6.97609E-04
 9.50000E-01               7.09811E-04
 1.05000E+00               7.23210E-04
 1.15000E+00               7.37754E-04
 1.25000E+00               7.53391E-04
 1.35000E+00               7.70061E-04
 1.45000E+00               7.87702E-04
 1.55000E+00               8.06248E-04
 1.65000E+00               8.25628E-04
 1.75000E+00               8.45767E-04
 1.85000E+00               8.66590E-04
 1.95000E+00               8.88014E-04
 2.05000E+00               9.09958E-04
 2.15000E+00               9.32334E-04
 2.25000E+00               9.55055E-04
 2.35000E+00               9.78031E-04
 2.45000E+00               1.00117E-03
 2.55000E+00               1.02438E-03
 2.65000E+00               1.04756E-03
 2.75000E+00               1.07063E-03
 2.85000E+00               1.09349E-03
 2.95000E+00               1.11603E-03
 3.05000E+00               1.13818E-03
 3.15000E+00               1.15984E-03
 3.25000E+00               1.18091E-03
 3.35000E+00               1.20130E-03
 3.45000E+00               1.22094E-03
 3.55000E+00               1.23974E-03
 3.65000E+00               1.25761E-03
 3.75000E+00               1.27448E-03
 3.85000E+00               1.29028E-03
 3.95000E+00               1.30493E-03
 4.05000E+00               1.31838E-03
 4.15000E+00               1.33055E-03
 4.25000E+00               1.34141E-03
 4.35000E+00               1.35090E-03
 4.45000E+00               1.35897E-03
 4.55000E+00               1.36559E-03
 4.65000E+00               1.37073E-03
 4.75000E+00               1.37437E-03
 4.85000E+00               1.37648E-03
 4.95000E+00               1.37706E-03
 5.05000E+00               1.37611E-03
 5.15000E+00               1.37361E-03
 5.25000E+00               1.36959E-03
 5.35000E+00               1.36405E-03
 5.45000E+00               1.35702E-03
 5.55000E+00               1.34853E-03
 5.65000E+00               1.33861E-03
 5.75000E+00               1.32731E-03
 5.85000E+00               1.31466E-03
 5.95000E+00               1.30071E-03
 6.05000E+00               1.28554E-03
 6.15000E+00               1.26918E-03
 6.25000E+00               1.25173E-03
 6.35000E+00               1.23323E-03
 6.45000E+00               1.21378E-03
 6.55000E+00               1.19344E-03
 6.65000E+00               1.17229E-03
 6.75000E+00               1.15043E-03
 6.85000E+00               1.12793E-03
 6.95000E+00               1.10489E-03
 7.05000E+00               1.08139E-03
 7.15000E+00               1.05753E-03
 7.25000E+00               1.03340E-03
 7.35000E+00               1.00908E-03
 7.45000E+00               9.84675E-04
 7.55000E+00               9.60271E-04
 7.65000E+00               9.35960E-04
 7.75000E+00               9.11831E-04
 7.85000E+00               8.87974E-04
 7.95000E+00               8.64473E-04
 8.05000E+00               8.41414E-04
 8.15000E+00               8.18878E-04
 8.25000E+00               7.96946E-04
 8.35000E+00               7.75695E-04
 8.45000E+00               7.55197E-04
 8.55000E+00               7.35525E-04
 8.65000E+00               7.16744E-04
 8.75000E+00               6.98920E-04
 8.85000E+00               6.82111E-04
 8.95000E+00               6.66375E-04
 9.05000E+00               6.51763E-04
 9.15000E+00               6.38324E-04
 9.25000E+00               6.26101E-04
 9.35000E+00               6.15136E-04
 9.45000E+00               6.05462E-04
 9.55000E+00               5.97112E-04
 9.65000E+00               5.90113E-04
 9.75000E+00               5.84486E-04
 9.85000E+00               5.80251E-04
 9.95000E+00               5.77419E-04
 1.00500E+01               5.76001E-04
