# Units: Mol/kgw
 TITLE = " Years"
VARIABLES = "X (meters)", "Cl-       ", "
 ZONE F=POINT,I=         101
 5.00000E-02               1.26282E-04
 1.50000E-01               1.28415E-04
 2.50000E-01               1.32691E-04
 3.50000E-01               1.39135E-04
 4.50000E-01               1.47778E-04
 5.50000E-01               1.58664E-04
 6.50000E-01               1.71845E-04
 7.50000E-01               1.87379E-04
 8.50000E-01               2.05332E-04
 9.50000E-01               2.25773E-04
 1.05000E+00               2.48773E-04
 1.15000E+00               2.74404E-04
 1.25000E+00               3.02735E-04
 1.35000E+00               3.33829E-04
 1.45000E+00               3.67743E-04
 1.55000E+00               4.04523E-04
 1.65000E+00               4.44200E-04
 1.75000E+00               4.86793E-04
 1.85000E+00               5.32297E-04
 1.95000E+00               5.80690E-04
 2.05000E+00               6.31923E-04
 2.15000E+00               6.85920E-04
 2.25000E+00               7.42578E-04
 2.35000E+00               8.01763E-04
 2.45000E+00               8.63309E-04
 2.55000E+00               9.27016E-04
 2.65000E+00               9.92650E-04
 2.75000E+00               1.05995E-03
 2.85000E+00               1.12860E-03
 2.95000E+00               1.19829E-03
 3.05000E+00               1.26864E-03
 3.15000E+00               1.33927E-03
 3.25000E+00               1.40976E-03
 3.35000E+00               1.47968E-03
 3.45000E+00               1.54857E-03
 3.55000E+00               1.61595E-03
 3.65000E+00               1.68137E-03
 3.75000E+00               1.74433E-03
 3.85000E+00               1.80437E-03
 3.95000E+00               1.86102E-03
 4.05000E+00               1.91382E-03
 4.15000E+00               1.96236E-03
 4.25000E+00               2.00622E-03
 4.35000E+00               2.04503E-03
 4.45000E+00               2.07847E-03
 4.55000E+00               2.10624E-03
 4.65000E+00               2.12810E-03
 4.75000E+00               2.14386E-03
 4.85000E+00               2.15336E-03
 4.95000E+00               2.15654E-03
 5.05000E+00               2.15336E-03
 5.15000E+00               2.14385E-03
 5.25000E+00               2.12810E-03
 5.35000E+00               2.10624E-03
 5.45000E+00               2.07847E-03
 5.55000E+00               2.04503E-03
 5.65000E+00               2.00621E-03
 5.75000E+00               1.96234E-03
 5.85000E+00               1.91381E-03
 5.95000E+00               1.86099E-03
 6.05000E+00               1.80434E-03
 6.15000E+00               1.74429E-03
 6.25000E+00               1.68132E-03
 6.35000E+00               1.61589E-03
 6.45000E+00               1.54849E-03
 6.55000E+00               1.47959E-03
 6.65000E+00               1.40965E-03
 6.75000E+00               1.33914E-03
 6.85000E+00               1.26848E-03
 6.95000E+00               1.19808E-03
 7.05000E+00               1.12835E-03
 7.15000E+00               1.05964E-03
 7.25000E+00               9.92278E-04
 7.35000E+00               9.26563E-04
 7.45000E+00               8.62761E-04
 7.55000E+00               8.01100E-04
 7.65000E+00               7.41778E-04
 7.75000E+00               6.84957E-04
 7.85000E+00               6.30767E-04
 7.95000E+00               5.79306E-04
 8.05000E+00               5.30644E-04
 8.15000E+00               4.84822E-04
 8.25000E+00               4.41858E-04
 8.35000E+00               4.01745E-04
 8.45000E+00               3.64458E-04
 8.55000E+00               3.29953E-04
 8.65000E+00               2.98175E-04
 8.75000E+00               2.69053E-04
 8.85000E+00               2.42510E-04
 8.95000E+00               2.18462E-04
 9.05000E+00               1.96821E-04
 9.15000E+00               1.77498E-04
 9.25000E+00               1.60404E-04
 9.35000E+00               1.45455E-04
 9.45000E+00               1.32570E-04
 9.55000E+00               1.21674E-04
 9.65000E+00               1.12701E-04
 9.75000E+00               1.05594E-04
 9.85000E+00               1.00306E-04
 9.95000E+00               9.68007E-05
 1.00500E+01               9.50543E-05
