# Units: Mol/kgw
 TITLE = " Years"
VARIABLES = "X (meters)", "Cl-       ", "
 ZONE F=POINT,I=         101
 5.00000E-02               5.08961E-04
 1.50000E-01               5.10858E-04
 2.50000E-01               5.14646E-04
 3.50000E-01               5.20314E-04
 4.50000E-01               5.27845E-04
 5.50000E-01               5.37215E-04
 6.50000E-01               5.48396E-04
 7.50000E-01               5.61354E-04
 8.50000E-01               5.76048E-04
 9.50000E-01               5.92433E-04
 1.05000E+00               6.10455E-04
 1.15000E+00               6.30057E-04
 1.25000E+00               6.51176E-04
 1.35000E+00               6.73741E-04
 1.45000E+00               6.97677E-04
 1.55000E+00               7.22903E-04
 1.65000E+00               7.49331E-04
 1.75000E+00               7.76870E-04
 1.85000E+00               8.05420E-04
 1.95000E+00               8.34879E-04
 2.05000E+00               8.65139E-04
 2.15000E+00               8.96086E-04
 2.25000E+00               9.27604E-04
 2.35000E+00               9.59569E-04
 2.45000E+00               9.91858E-04
 2.55000E+00               1.02434E-03
 2.65000E+00               1.05689E-03
 2.75000E+00               1.08937E-03
 2.85000E+00               1.12164E-03
 2.95000E+00               1.15357E-03
 3.05000E+00               1.18502E-03
 3.15000E+00               1.21586E-03
 3.25000E+00               1.24595E-03
 3.35000E+00               1.27516E-03
 3.45000E+00               1.30336E-03
 3.55000E+00               1.33041E-03
 3.65000E+00               1.35619E-03
 3.75000E+00               1.38059E-03
 3.85000E+00               1.40349E-03
 3.95000E+00               1.42478E-03
 4.05000E+00               1.44436E-03
 4.15000E+00               1.46214E-03
 4.25000E+00               1.47802E-03
 4.35000E+00               1.49194E-03
 4.45000E+00               1.50383E-03
 4.55000E+00               1.51362E-03
 4.65000E+00               1.52127E-03
 4.75000E+00               1.52674E-03
 4.85000E+00               1.53000E-03
 4.95000E+00               1.53103E-03
 5.05000E+00               1.52983E-03
 5.15000E+00               1.52640E-03
 5.25000E+00               1.52076E-03
 5.35000E+00               1.51293E-03
 5.45000E+00               1.50295E-03
 5.55000E+00               1.49087E-03
 5.65000E+00               1.47674E-03
 5.75000E+00               1.46063E-03
 5.85000E+00               1.44261E-03
 5.95000E+00               1.42277E-03
 6.05000E+00               1.40120E-03
 6.15000E+00               1.37799E-03
 6.25000E+00               1.35326E-03
 6.35000E+00               1.32711E-03
 6.45000E+00               1.29966E-03
 6.55000E+00               1.27103E-03
 6.65000E+00               1.24135E-03
 6.75000E+00               1.21074E-03
 6.85000E+00               1.17933E-03
 6.95000E+00               1.14726E-03
 7.05000E+00               1.11466E-03
 7.15000E+00               1.08166E-03
 7.25000E+00               1.04839E-03
 7.35000E+00               1.01499E-03
 7.45000E+00               9.81579E-04
 7.55000E+00               9.48287E-04
 7.65000E+00               9.15239E-04
 7.75000E+00               8.82556E-04
 7.85000E+00               8.50354E-04
 7.95000E+00               8.18748E-04
 8.05000E+00               7.87844E-04
 8.15000E+00               7.57749E-04
 8.25000E+00               7.28560E-04
 8.35000E+00               7.00372E-04
 8.45000E+00               6.73275E-04
 8.55000E+00               6.47351E-04
 8.65000E+00               6.22680E-04
 8.75000E+00               5.99334E-04
 8.85000E+00               5.77381E-04
 8.95000E+00               5.56884E-04
 9.05000E+00               5.37900E-04
 9.15000E+00               5.20480E-04
 9.25000E+00               5.04672E-04
 9.35000E+00               4.90517E-04
 9.45000E+00               4.78052E-04
 9.55000E+00               4.67309E-04
 9.65000E+00               4.58316E-04
 9.75000E+00               4.51094E-04
 9.85000E+00               4.45662E-04
 9.95000E+00               4.42033E-04
 1.00500E+01               4.40217E-04
