# Units: Mol/kgw
 TITLE = " Years"
VARIABLES = "X (meters)", "Cl-       ", "
 ZONE F=POINT,I=         101
 5.00000E-02               5.90287E-06
 1.50000E-01               6.30959E-06
 2.50000E-01               7.14267E-06
 3.50000E-01               8.44184E-06
 4.50000E-01               1.02677E-05
 5.50000E-01               1.27029E-05
 6.50000E-01               1.58540E-05
 7.50000E-01               1.98525E-05
 8.50000E-01               2.48579E-05
 9.50000E-01               3.10588E-05
 1.05000E+00               3.86755E-05
 1.15000E+00               4.79614E-05
 1.25000E+00               5.92047E-05
 1.35000E+00               7.27294E-05
 1.45000E+00               8.88946E-05
 1.55000E+00               1.08094E-04
 1.65000E+00               1.30755E-04
 1.75000E+00               1.57332E-04
 1.85000E+00               1.88303E-04
 1.95000E+00               2.24162E-04
 2.05000E+00               2.65409E-04
 2.15000E+00               3.12541E-04
 2.25000E+00               3.66035E-04
 2.35000E+00               4.26333E-04
 2.45000E+00               4.93828E-04
 2.55000E+00               5.68842E-04
 2.65000E+00               6.51607E-04
 2.75000E+00               7.42246E-04
 2.85000E+00               8.40752E-04
 2.95000E+00               9.46971E-04
 3.05000E+00               1.06058E-03
 3.15000E+00               1.18109E-03
 3.25000E+00               1.30781E-03
 3.35000E+00               1.43986E-03
 3.45000E+00               1.57617E-03
 3.55000E+00               1.71548E-03
 3.65000E+00               1.85636E-03
 3.75000E+00               1.99721E-03
 3.85000E+00               2.13632E-03
 3.95000E+00               2.27187E-03
 4.05000E+00               2.40200E-03
 4.15000E+00               2.52480E-03
 4.25000E+00               2.63842E-03
 4.35000E+00               2.74106E-03
 4.45000E+00               2.83106E-03
 4.55000E+00               2.90691E-03
 4.65000E+00               2.96732E-03
 4.75000E+00               3.01125E-03
 4.85000E+00               3.03792E-03
 4.95000E+00               3.04687E-03
 5.05000E+00               3.03792E-03
 5.15000E+00               3.01125E-03
 5.25000E+00               2.96732E-03
 5.35000E+00               2.90691E-03
 5.45000E+00               2.83106E-03
 5.55000E+00               2.74106E-03
 5.65000E+00               2.63842E-03
 5.75000E+00               2.52480E-03
 5.85000E+00               2.40200E-03
 5.95000E+00               2.27187E-03
 6.05000E+00               2.13632E-03
 6.15000E+00               1.99721E-03
 6.25000E+00               1.85636E-03
 6.35000E+00               1.71548E-03
 6.45000E+00               1.57617E-03
 6.55000E+00               1.43986E-03
 6.65000E+00               1.30781E-03
 6.75000E+00               1.18109E-03
 6.85000E+00               1.06058E-03
 6.95000E+00               9.46971E-04
 7.05000E+00               8.40752E-04
 7.15000E+00               7.42245E-04
 7.25000E+00               6.51606E-04
 7.35000E+00               5.68841E-04
 7.45000E+00               4.93827E-04
 7.55000E+00               4.26332E-04
 7.65000E+00               3.66033E-04
 7.75000E+00               3.12539E-04
 7.85000E+00               2.65406E-04
 7.95000E+00               2.24157E-04
 8.05000E+00               1.88296E-04
 8.15000E+00               1.57322E-04
 8.25000E+00               1.30742E-04
 8.35000E+00               1.08075E-04
 8.45000E+00               8.88681E-05
 8.55000E+00               7.26926E-05
 8.65000E+00               5.91539E-05
 8.75000E+00               4.78914E-05
 8.85000E+00               3.85795E-05
 8.95000E+00               3.09279E-05
 9.05000E+00               2.46802E-05
 9.15000E+00               1.96123E-05
 9.25000E+00               1.55307E-05
 9.35000E+00               1.22702E-05
 9.45000E+00               9.69102E-06
 9.55000E+00               7.67720E-06
 9.65000E+00               6.13377E-06
 9.75000E+00               4.98498E-06
 9.85000E+00               4.17246E-06
 9.95000E+00               3.65377E-06
 1.00500E+01               3.40124E-06
