# Units: Mol/kgw
 TITLE = " Years"
VARIABLES = "X (meters)", "Cl-       ", "
 ZONE F=POINT,I=         101
 5.00000E-02               3.28097E-04
 1.50000E-01               3.30426E-04
 2.50000E-01               3.35082E-04
 3.50000E-01               3.42058E-04
 4.50000E-01               3.51346E-04
 5.50000E-01               3.62933E-04
 6.50000E-01               3.76804E-04
 7.50000E-01               3.92937E-04
 8.50000E-01               4.11309E-04
 9.50000E-01               4.31890E-04
 1.05000E+00               4.54644E-04
 1.15000E+00               4.79530E-04
 1.25000E+00               5.06499E-04
 1.35000E+00               5.35495E-04
 1.45000E+00               5.66455E-04
 1.55000E+00               5.99306E-04
 1.65000E+00               6.33966E-04
 1.75000E+00               6.70345E-04
 1.85000E+00               7.08341E-04
 1.95000E+00               7.47843E-04
 2.05000E+00               7.88728E-04
 2.15000E+00               8.30865E-04
 2.25000E+00               8.74109E-04
 2.35000E+00               9.18307E-04
 2.45000E+00               9.63295E-04
 2.55000E+00               1.00890E-03
 2.65000E+00               1.05493E-03
 2.75000E+00               1.10121E-03
 2.85000E+00               1.14752E-03
 2.95000E+00               1.19367E-03
 3.05000E+00               1.23944E-03
 3.15000E+00               1.28461E-03
 3.25000E+00               1.32897E-03
 3.35000E+00               1.37229E-03
 3.45000E+00               1.41435E-03
 3.55000E+00               1.45493E-03
 3.65000E+00               1.49382E-03
 3.75000E+00               1.53080E-03
 3.85000E+00               1.56567E-03
 3.95000E+00               1.59824E-03
 4.05000E+00               1.62831E-03
 4.15000E+00               1.65572E-03
 4.25000E+00               1.68029E-03
 4.35000E+00               1.70190E-03
 4.45000E+00               1.72041E-03
 4.55000E+00               1.73570E-03
 4.65000E+00               1.74769E-03
 4.75000E+00               1.75630E-03
 4.85000E+00               1.76148E-03
 4.95000E+00               1.76320E-03
 5.05000E+00               1.76145E-03
 5.15000E+00               1.75623E-03
 5.25000E+00               1.74758E-03
 5.35000E+00               1.73555E-03
 5.45000E+00               1.72021E-03
 5.55000E+00               1.70166E-03
 5.65000E+00               1.68000E-03
 5.75000E+00               1.65536E-03
 5.85000E+00               1.62789E-03
 5.95000E+00               1.59774E-03
 6.05000E+00               1.56509E-03
 6.15000E+00               1.53012E-03
 6.25000E+00               1.49302E-03
 6.35000E+00               1.45401E-03
 6.45000E+00               1.41328E-03
 6.55000E+00               1.37105E-03
 6.65000E+00               1.32754E-03
 6.75000E+00               1.28297E-03
 6.85000E+00               1.23755E-03
 6.95000E+00               1.19151E-03
 7.05000E+00               1.14505E-03
 7.15000E+00               1.09839E-03
 7.25000E+00               1.05172E-03
 7.35000E+00               1.00524E-03
 7.45000E+00               9.59137E-04
 7.55000E+00               9.13593E-04
 7.65000E+00               8.68773E-04
 7.75000E+00               8.24835E-04
 7.85000E+00               7.81927E-04
 7.95000E+00               7.40185E-04
 8.05000E+00               6.99734E-04
 8.15000E+00               6.60688E-04
 8.25000E+00               6.23152E-04
 8.35000E+00               5.87218E-04
 8.45000E+00               5.52968E-04
 8.55000E+00               5.20476E-04
 8.65000E+00               4.89804E-04
 8.75000E+00               4.61009E-04
 8.85000E+00               4.34135E-04
 8.95000E+00               4.09225E-04
 9.05000E+00               3.86309E-04
 9.15000E+00               3.65417E-04
 9.25000E+00               3.46569E-04
 9.35000E+00               3.29783E-04
 9.45000E+00               3.15073E-04
 9.55000E+00               3.02449E-04
 9.65000E+00               2.91920E-04
 9.75000E+00               2.83490E-04
 9.85000E+00               2.77165E-04
 9.95000E+00               2.72947E-04
 1.00500E+01               2.70838E-04
