title = "dataset diff-rc-t"
variables = "x", "y", "z", "K_xx", "K_yy", "K_zz"
zone t = "K - initial [m/s]", i =  500, j =    1, k =    1,  f=point
  0.0000000E+00  0.0000000E+00  0.0000000E+00  0.2000000E-12  0.0000000E+00  0.0000000E+00
  0.2004008E-02  0.0000000E+00  0.0000000E+00  0.2000000E-12  0.0000000E+00  0.0000000E+00
  0.4008016E-02  0.0000000E+00  0.0000000E+00  0.2000000E-12  0.0000000E+00  0.0000000E+00
  0.6012024E-02  0.0000000E+00  0.0000000E+00  0.2000000E-12  0.0000000E+00  0.0000000E+00
  0.8016032E-02  0.0000000E+00  0.0000000E+00  0.2000000E-12  0.0000000E+00  0.0000000E+00
  0.1002004E-01  0.0000000E+00  0.0000000E+00  0.2000000E-12  0.0000000E+00  0.0000000E+00
  0.1202405E-01  0.0000000E+00  0.0000000E+00  0.2000000E-12  0.0000000E+00  0.0000000E+00
  0.1402806E-01  0.0000000E+00  0.0000000E+00  0.2000000E-12  0.0000000E+00  0.0000000E+00
  0.1603206E-01  0.0000000E+00  0.0000000E+00  0.2000000E-12  0.0000000E+00  0.0000000E+00
  0.1803607E-01  0.0000000E+00  0.0000000E+00  0.2000000E-12  0.0000000E+00  0.0000000E+00
  0.2004008E-01  0.0000000E+00  0.0000000E+00  0.2000000E-12  0.0000000E+00  0.0000000E+00
  0.2204409E-01  0.0000000E+00  0.0000000E+00  0.2000000E-12  0.0000000E+00  0.0000000E+00
  0.2404810E-01  0.0000000E+00  0.0000000E+00  0.2000000E-12  0.0000000E+00  0.0000000E+00
  0.2605210E-01  0.0000000E+00  0.0000000E+00  0.2000000E-12  0.0000000E+00  0.0000000E+00
  0.2805611E-01  0.0000000E+00  0.0000000E+00  0.2000000E-12  0.0000000E+00  0.0000000E+00
  0.3006012E-01  0.0000000E+00  0.0000000E+00  0.2000000E-12  0.0000000E+00  0.0000000E+00
  0.3206413E-01  0.0000000E+00  0.0000000E+00  0.2000000E-12  0.0000000E+00  0.0000000E+00
  0.3406814E-01  0.0000000E+00  0.0000000E+00  0.2000000E-12  0.0000000E+00  0.0000000E+00
  0.3607214E-01  0.0000000E+00  0.0000000E+00  0.2000000E-12  0.0000000E+00  0.0000000E+00
  0.3807615E-01  0.0000000E+00  0.0000000E+00  0.2000000E-12  0.0000000E+00  0.0000000E+00
  0.4008016E-01  0.0000000E+00  0.0000000E+00  0.2000000E-12  0.0000000E+00  0.0000000E+00
  0.4208417E-01  0.0000000E+00  0.0000000E+00  0.2000000E-12  0.0000000E+00  0.0000000E+00
  0.4408818E-01  0.0000000E+00  0.0000000E+00  0.2000000E-12  0.0000000E+00  0.0000000E+00
  0.4609218E-01  0.0000000E+00  0.0000000E+00  0.2000000E-12  0.0000000E+00  0.0000000E+00
  0.4809619E-01  0.0000000E+00  0.0000000E+00  0.2000000E-12  0.0000000E+00  0.0000000E+00
  0.5010020E-01  0.0000000E+00  0.0000000E+00  0.2000000E-12  0.0000000E+00  0.0000000E+00
  0.5210421E-01  0.0000000E+00  0.0000000E+00  0.2000000E-12  0.0000000E+00  0.0000000E+00
  0.5410822E-01  0.0000000E+00  0.0000000E+00  0.2000000E-12  0.0000000E+00  0.0000000E+00
  0.5611222E-01  0.0000000E+00  0.0000000E+00  0.2000000E-12  0.0000000E+00  0.0000000E+00
  0.5811623E-01  0.0000000E+00  0.0000000E+00  0.2000000E-12  0.0000000E+00  0.0000000E+00
  0.6012024E-01  0.0000000E+00  0.0000000E+00  0.2000000E-12  0.0000000E+00  0.0000000E+00
  0.6212425E-01  0.0000000E+00  0.0000000E+00  0.2000000E-12  0.0000000E+00  0.0000000E+00
  0.6412826E-01  0.0000000E+00  0.0000000E+00  0.2000000E-12  0.0000000E+00  0.0000000E+00
  0.6613226E-01  0.0000000E+00  0.0000000E+00  0.2000000E-12  0.0000000E+00  0.0000000E+00
  0.6813627E-01  0.0000000E+00  0.0000000E+00  0.2000000E-12  0.0000000E+00  0.0000000E+00
  0.7014028E-01  0.0000000E+00  0.0000000E+00  0.2000000E-12  0.0000000E+00  0.0000000E+00
  0.7214429E-01  0.0000000E+00  0.0000000E+00  0.2000000E-12  0.0000000E+00  0.0000000E+00
  0.7414830E-01  0.0000000E+00  0.0000000E+00  0.2000000E-12  0.0000000E+00  0.0000000E+00
  0.7615230E-01  0.0000000E+00  0.0000000E+00  0.2000000E-12  0.0000000E+00  0.0000000E+00
  0.7815631E-01  0.0000000E+00  0.0000000E+00  0.2000000E-12  0.0000000E+00  0.0000000E+00
  0.8016032E-01  0.0000000E+00  0.0000000E+00  0.2000000E-12  0.0000000E+00  0.0000000E+00
  0.8216433E-01  0.0000000E+00  0.0000000E+00  0.2000000E-12  0.0000000E+00  0.0000000E+00
  0.8416834E-01  0.0000000E+00  0.0000000E+00  0.2000000E-12  0.0000000E+00  0.0000000E+00
  0.8617234E-01  0.0000000E+00  0.0000000E+00  0.2000000E-12  0.0000000E+00  0.0000000E+00
  0.8817635E-01  0.0000000E+00  0.0000000E+00  0.2000000E-12  0.0000000E+00  0.0000000E+00
  0.9018036E-01  0.0000000E+00  0.0000000E+00  0.2000000E-12  0.0000000E+00  0.0000000E+00
  0.9218437E-01  0.0000000E+00  0.0000000E+00  0.2000000E-12  0.0000000E+00  0.0000000E+00
  0.9418838E-01  0.0000000E+00  0.0000000E+00  0.2000000E-12  0.0000000E+00  0.0000000E+00
  0.9619238E-01  0.0000000E+00  0.0000000E+00  0.2000000E-12  0.0000000E+00  0.0000000E+00
  0.9819639E-01  0.0000000E+00  0.0000000E+00  0.2000000E-12  0.0000000E+00  0.0000000E+00
  0.1002004E+00  0.0000000E+00  0.0000000E+00  0.2000000E-12  0.0000000E+00  0.0000000E+00
  0.1022044E+00  0.0000000E+00  0.0000000E+00  0.2000000E-12  0.0000000E+00  0.0000000E+00
  0.1042084E+00  0.0000000E+00  0.0000000E+00  0.2000000E-12  0.0000000E+00  0.0000000E+00
  0.1062124E+00  0.0000000E+00  0.0000000E+00  0.2000000E-12  0.0000000E+00  0.0000000E+00
  0.1082164E+00  0.0000000E+00  0.0000000E+00  0.2000000E-12  0.0000000E+00  0.0000000E+00
  0.1102204E+00  0.0000000E+00  0.0000000E+00  0.2000000E-12  0.0000000E+00  0.0000000E+00
  0.1122244E+00  0.0000000E+00  0.0000000E+00  0.2000000E-12  0.0000000E+00  0.0000000E+00
  0.1142285E+00  0.0000000E+00  0.0000000E+00  0.2000000E-12  0.0000000E+00  0.0000000E+00
  0.1162325E+00  0.0000000E+00  0.0000000E+00  0.2000000E-12  0.0000000E+00  0.0000000E+00
  0.1182365E+00  0.0000000E+00  0.0000000E+00  0.2000000E-12  0.0000000E+00  0.0000000E+00
  0.1202405E+00  0.0000000E+00  0.0000000E+00  0.2000000E-12  0.0000000E+00  0.0000000E+00
  0.1222445E+00  0.0000000E+00  0.0000000E+00  0.2000000E-12  0.0000000E+00  0.0000000E+00
  0.1242485E+00  0.0000000E+00  0.0000000E+00  0.2000000E-12  0.0000000E+00  0.0000000E+00
  0.1262525E+00  0.0000000E+00  0.0000000E+00  0.2000000E-12  0.0000000E+00  0.0000000E+00
  0.1282565E+00  0.0000000E+00  0.0000000E+00  0.2000000E-12  0.0000000E+00  0.0000000E+00
  0.1302605E+00  0.0000000E+00  0.0000000E+00  0.2000000E-12  0.0000000E+00  0.0000000E+00
  0.1322645E+00  0.0000000E+00  0.0000000E+00  0.2000000E-12  0.0000000E+00  0.0000000E+00
  0.1342685E+00  0.0000000E+00  0.0000000E+00  0.2000000E-12  0.0000000E+00  0.0000000E+00
  0.1362725E+00  0.0000000E+00  0.0000000E+00  0.2000000E-12  0.0000000E+00  0.0000000E+00
  0.1382766E+00  0.0000000E+00  0.0000000E+00  0.2000000E-12  0.0000000E+00  0.0000000E+00
  0.1402806E+00  0.0000000E+00  0.0000000E+00  0.2000000E-12  0.0000000E+00  0.0000000E+00
  0.1422846E+00  0.0000000E+00  0.0000000E+00  0.2000000E-12  0.0000000E+00  0.0000000E+00
  0.1442886E+00  0.0000000E+00  0.0000000E+00  0.2000000E-12  0.0000000E+00  0.0000000E+00
  0.1462926E+00  0.0000000E+00  0.0000000E+00  0.2000000E-12  0.0000000E+00  0.0000000E+00
  0.1482966E+00  0.0000000E+00  0.0000000E+00  0.2000000E-12  0.0000000E+00  0.0000000E+00
  0.1503006E+00  0.0000000E+00  0.0000000E+00  0.2000000E-12  0.0000000E+00  0.0000000E+00
  0.1523046E+00  0.0000000E+00  0.0000000E+00  0.2000000E-12  0.0000000E+00  0.0000000E+00
  0.1543086E+00  0.0000000E+00  0.0000000E+00  0.2000000E-12  0.0000000E+00  0.0000000E+00
  0.1563126E+00  0.0000000E+00  0.0000000E+00  0.2000000E-12  0.0000000E+00  0.0000000E+00
  0.1583166E+00  0.0000000E+00  0.0000000E+00  0.2000000E-12  0.0000000E+00  0.0000000E+00
  0.1603206E+00  0.0000000E+00  0.0000000E+00  0.2000000E-12  0.0000000E+00  0.0000000E+00
  0.1623246E+00  0.0000000E+00  0.0000000E+00  0.2000000E-12  0.0000000E+00  0.0000000E+00
  0.1643287E+00  0.0000000E+00  0.0000000E+00  0.2000000E-12  0.0000000E+00  0.0000000E+00
  0.1663327E+00  0.0000000E+00  0.0000000E+00  0.2000000E-12  0.0000000E+00  0.0000000E+00
  0.1683367E+00  0.0000000E+00  0.0000000E+00  0.2000000E-12  0.0000000E+00  0.0000000E+00
  0.1703407E+00  0.0000000E+00  0.0000000E+00  0.2000000E-12  0.0000000E+00  0.0000000E+00
  0.1723447E+00  0.0000000E+00  0.0000000E+00  0.2000000E-12  0.0000000E+00  0.0000000E+00
  0.1743487E+00  0.0000000E+00  0.0000000E+00  0.2000000E-12  0.0000000E+00  0.0000000E+00
  0.1763527E+00  0.0000000E+00  0.0000000E+00  0.2000000E-12  0.0000000E+00  0.0000000E+00
  0.1783567E+00  0.0000000E+00  0.0000000E+00  0.2000000E-12  0.0000000E+00  0.0000000E+00
  0.1803607E+00  0.0000000E+00  0.0000000E+00  0.2000000E-12  0.0000000E+00  0.0000000E+00
  0.1823647E+00  0.0000000E+00  0.0000000E+00  0.2000000E-12  0.0000000E+00  0.0000000E+00
  0.1843687E+00  0.0000000E+00  0.0000000E+00  0.2000000E-12  0.0000000E+00  0.0000000E+00
  0.1863727E+00  0.0000000E+00  0.0000000E+00  0.2000000E-12  0.0000000E+00  0.0000000E+00
  0.1883768E+00  0.0000000E+00  0.0000000E+00  0.2000000E-12  0.0000000E+00  0.0000000E+00
  0.1903808E+00  0.0000000E+00  0.0000000E+00  0.2000000E-12  0.0000000E+00  0.0000000E+00
  0.1923848E+00  0.0000000E+00  0.0000000E+00  0.2000000E-12  0.0000000E+00  0.0000000E+00
  0.1943888E+00  0.0000000E+00  0.0000000E+00  0.2000000E-12  0.0000000E+00  0.0000000E+00
  0.1963928E+00  0.0000000E+00  0.0000000E+00  0.2000000E-12  0.0000000E+00  0.0000000E+00
  0.1983968E+00  0.0000000E+00  0.0000000E+00  0.2000000E-12  0.0000000E+00  0.0000000E+00
  0.2004008E+00  0.0000000E+00  0.0000000E+00  0.2000000E-12  0.0000000E+00  0.0000000E+00
  0.2024048E+00  0.0000000E+00  0.0000000E+00  0.2000000E-12  0.0000000E+00  0.0000000E+00
  0.2044088E+00  0.0000000E+00  0.0000000E+00  0.2000000E-12  0.0000000E+00  0.0000000E+00
  0.2064128E+00  0.0000000E+00  0.0000000E+00  0.2000000E-12  0.0000000E+00  0.0000000E+00
  0.2084168E+00  0.0000000E+00  0.0000000E+00  0.2000000E-12  0.0000000E+00  0.0000000E+00
  0.2104208E+00  0.0000000E+00  0.0000000E+00  0.2000000E-12  0.0000000E+00  0.0000000E+00
  0.2124248E+00  0.0000000E+00  0.0000000E+00  0.2000000E-12  0.0000000E+00  0.0000000E+00
  0.2144289E+00  0.0000000E+00  0.0000000E+00  0.2000000E-12  0.0000000E+00  0.0000000E+00
  0.2164329E+00  0.0000000E+00  0.0000000E+00  0.2000000E-12  0.0000000E+00  0.0000000E+00
  0.2184369E+00  0.0000000E+00  0.0000000E+00  0.2000000E-12  0.0000000E+00  0.0000000E+00
  0.2204409E+00  0.0000000E+00  0.0000000E+00  0.2000000E-12  0.0000000E+00  0.0000000E+00
  0.2224449E+00  0.0000000E+00  0.0000000E+00  0.2000000E-12  0.0000000E+00  0.0000000E+00
  0.2244489E+00  0.0000000E+00  0.0000000E+00  0.2000000E-12  0.0000000E+00  0.0000000E+00
  0.2264529E+00  0.0000000E+00  0.0000000E+00  0.2000000E-12  0.0000000E+00  0.0000000E+00
  0.2284569E+00  0.0000000E+00  0.0000000E+00  0.2000000E-12  0.0000000E+00  0.0000000E+00
  0.2304609E+00  0.0000000E+00  0.0000000E+00  0.2000000E-12  0.0000000E+00  0.0000000E+00
  0.2324649E+00  0.0000000E+00  0.0000000E+00  0.2000000E-12  0.0000000E+00  0.0000000E+00
  0.2344689E+00  0.0000000E+00  0.0000000E+00  0.2000000E-12  0.0000000E+00  0.0000000E+00
  0.2364729E+00  0.0000000E+00  0.0000000E+00  0.2000000E-12  0.0000000E+00  0.0000000E+00
  0.2384770E+00  0.0000000E+00  0.0000000E+00  0.2000000E-12  0.0000000E+00  0.0000000E+00
  0.2404810E+00  0.0000000E+00  0.0000000E+00  0.2000000E-12  0.0000000E+00  0.0000000E+00
  0.2424850E+00  0.0000000E+00  0.0000000E+00  0.2000000E-12  0.0000000E+00  0.0000000E+00
  0.2444890E+00  0.0000000E+00  0.0000000E+00  0.2000000E-12  0.0000000E+00  0.0000000E+00
  0.2464930E+00  0.0000000E+00  0.0000000E+00  0.2000000E-12  0.0000000E+00  0.0000000E+00
  0.2484970E+00  0.0000000E+00  0.0000000E+00  0.2000000E-12  0.0000000E+00  0.0000000E+00
  0.2505010E+00  0.0000000E+00  0.0000000E+00  0.2000000E-12  0.0000000E+00  0.0000000E+00
  0.2525050E+00  0.0000000E+00  0.0000000E+00  0.2000000E-12  0.0000000E+00  0.0000000E+00
  0.2545090E+00  0.0000000E+00  0.0000000E+00  0.2000000E-12  0.0000000E+00  0.0000000E+00
  0.2565130E+00  0.0000000E+00  0.0000000E+00  0.2000000E-12  0.0000000E+00  0.0000000E+00
  0.2585170E+00  0.0000000E+00  0.0000000E+00  0.2000000E-12  0.0000000E+00  0.0000000E+00
  0.2605210E+00  0.0000000E+00  0.0000000E+00  0.2000000E-12  0.0000000E+00  0.0000000E+00
  0.2625251E+00  0.0000000E+00  0.0000000E+00  0.2000000E-12  0.0000000E+00  0.0000000E+00
  0.2645291E+00  0.0000000E+00  0.0000000E+00  0.2000000E-12  0.0000000E+00  0.0000000E+00
  0.2665331E+00  0.0000000E+00  0.0000000E+00  0.2000000E-12  0.0000000E+00  0.0000000E+00
  0.2685371E+00  0.0000000E+00  0.0000000E+00  0.2000000E-12  0.0000000E+00  0.0000000E+00
  0.2705411E+00  0.0000000E+00  0.0000000E+00  0.2000000E-12  0.0000000E+00  0.0000000E+00
  0.2725451E+00  0.0000000E+00  0.0000000E+00  0.2000000E-12  0.0000000E+00  0.0000000E+00
  0.2745491E+00  0.0000000E+00  0.0000000E+00  0.2000000E-12  0.0000000E+00  0.0000000E+00
  0.2765531E+00  0.0000000E+00  0.0000000E+00  0.2000000E-12  0.0000000E+00  0.0000000E+00
  0.2785571E+00  0.0000000E+00  0.0000000E+00  0.2000000E-12  0.0000000E+00  0.0000000E+00
  0.2805611E+00  0.0000000E+00  0.0000000E+00  0.2000000E-12  0.0000000E+00  0.0000000E+00
  0.2825651E+00  0.0000000E+00  0.0000000E+00  0.2000000E-12  0.0000000E+00  0.0000000E+00
  0.2845691E+00  0.0000000E+00  0.0000000E+00  0.2000000E-12  0.0000000E+00  0.0000000E+00
  0.2865731E+00  0.0000000E+00  0.0000000E+00  0.2000000E-12  0.0000000E+00  0.0000000E+00
  0.2885772E+00  0.0000000E+00  0.0000000E+00  0.2000000E-12  0.0000000E+00  0.0000000E+00
  0.2905812E+00  0.0000000E+00  0.0000000E+00  0.2000000E-12  0.0000000E+00  0.0000000E+00
  0.2925852E+00  0.0000000E+00  0.0000000E+00  0.2000000E-12  0.0000000E+00  0.0000000E+00
  0.2945892E+00  0.0000000E+00  0.0000000E+00  0.2000000E-12  0.0000000E+00  0.0000000E+00
  0.2965932E+00  0.0000000E+00  0.0000000E+00  0.2000000E-12  0.0000000E+00  0.0000000E+00
  0.2985972E+00  0.0000000E+00  0.0000000E+00  0.2000000E-12  0.0000000E+00  0.0000000E+00
  0.3006012E+00  0.0000000E+00  0.0000000E+00  0.2000000E-12  0.0000000E+00  0.0000000E+00
  0.3026052E+00  0.0000000E+00  0.0000000E+00  0.2000000E-12  0.0000000E+00  0.0000000E+00
  0.3046092E+00  0.0000000E+00  0.0000000E+00  0.2000000E-12  0.0000000E+00  0.0000000E+00
  0.3066132E+00  0.0000000E+00  0.0000000E+00  0.2000000E-12  0.0000000E+00  0.0000000E+00
  0.3086172E+00  0.0000000E+00  0.0000000E+00  0.2000000E-12  0.0000000E+00  0.0000000E+00
  0.3106212E+00  0.0000000E+00  0.0000000E+00  0.2000000E-12  0.0000000E+00  0.0000000E+00
  0.3126253E+00  0.0000000E+00  0.0000000E+00  0.2000000E-12  0.0000000E+00  0.0000000E+00
  0.3146293E+00  0.0000000E+00  0.0000000E+00  0.2000000E-12  0.0000000E+00  0.0000000E+00
  0.3166333E+00  0.0000000E+00  0.0000000E+00  0.2000000E-12  0.0000000E+00  0.0000000E+00
  0.3186373E+00  0.0000000E+00  0.0000000E+00  0.2000000E-12  0.0000000E+00  0.0000000E+00
  0.3206413E+00  0.0000000E+00  0.0000000E+00  0.2000000E-12  0.0000000E+00  0.0000000E+00
  0.3226453E+00  0.0000000E+00  0.0000000E+00  0.2000000E-12  0.0000000E+00  0.0000000E+00
  0.3246493E+00  0.0000000E+00  0.0000000E+00  0.2000000E-12  0.0000000E+00  0.0000000E+00
  0.3266533E+00  0.0000000E+00  0.0000000E+00  0.2000000E-12  0.0000000E+00  0.0000000E+00
  0.3286573E+00  0.0000000E+00  0.0000000E+00  0.2000000E-12  0.0000000E+00  0.0000000E+00
  0.3306613E+00  0.0000000E+00  0.0000000E+00  0.2000000E-12  0.0000000E+00  0.0000000E+00
  0.3326653E+00  0.0000000E+00  0.0000000E+00  0.2000000E-12  0.0000000E+00  0.0000000E+00
  0.3346693E+00  0.0000000E+00  0.0000000E+00  0.2000000E-12  0.0000000E+00  0.0000000E+00
  0.3366733E+00  0.0000000E+00  0.0000000E+00  0.2000000E-12  0.0000000E+00  0.0000000E+00
  0.3386774E+00  0.0000000E+00  0.0000000E+00  0.2000000E-12  0.0000000E+00  0.0000000E+00
  0.3406814E+00  0.0000000E+00  0.0000000E+00  0.2000000E-12  0.0000000E+00  0.0000000E+00
  0.3426854E+00  0.0000000E+00  0.0000000E+00  0.2000000E-12  0.0000000E+00  0.0000000E+00
  0.3446894E+00  0.0000000E+00  0.0000000E+00  0.2000000E-12  0.0000000E+00  0.0000000E+00
  0.3466934E+00  0.0000000E+00  0.0000000E+00  0.2000000E-12  0.0000000E+00  0.0000000E+00
  0.3486974E+00  0.0000000E+00  0.0000000E+00  0.2000000E-12  0.0000000E+00  0.0000000E+00
  0.3507014E+00  0.0000000E+00  0.0000000E+00  0.2000000E-12  0.0000000E+00  0.0000000E+00
  0.3527054E+00  0.0000000E+00  0.0000000E+00  0.2000000E-12  0.0000000E+00  0.0000000E+00
  0.3547094E+00  0.0000000E+00  0.0000000E+00  0.2000000E-12  0.0000000E+00  0.0000000E+00
  0.3567134E+00  0.0000000E+00  0.0000000E+00  0.2000000E-12  0.0000000E+00  0.0000000E+00
  0.3587174E+00  0.0000000E+00  0.0000000E+00  0.2000000E-12  0.0000000E+00  0.0000000E+00
  0.3607214E+00  0.0000000E+00  0.0000000E+00  0.2000000E-12  0.0000000E+00  0.0000000E+00
  0.3627255E+00  0.0000000E+00  0.0000000E+00  0.2000000E-12  0.0000000E+00  0.0000000E+00
  0.3647295E+00  0.0000000E+00  0.0000000E+00  0.2000000E-12  0.0000000E+00  0.0000000E+00
  0.3667335E+00  0.0000000E+00  0.0000000E+00  0.2000000E-12  0.0000000E+00  0.0000000E+00
  0.3687375E+00  0.0000000E+00  0.0000000E+00  0.2000000E-12  0.0000000E+00  0.0000000E+00
  0.3707415E+00  0.0000000E+00  0.0000000E+00  0.2000000E-12  0.0000000E+00  0.0000000E+00
  0.3727455E+00  0.0000000E+00  0.0000000E+00  0.2000000E-12  0.0000000E+00  0.0000000E+00
  0.3747495E+00  0.0000000E+00  0.0000000E+00  0.2000000E-12  0.0000000E+00  0.0000000E+00
  0.3767535E+00  0.0000000E+00  0.0000000E+00  0.2000000E-12  0.0000000E+00  0.0000000E+00
  0.3787575E+00  0.0000000E+00  0.0000000E+00  0.2000000E-12  0.0000000E+00  0.0000000E+00
  0.3807615E+00  0.0000000E+00  0.0000000E+00  0.2000000E-12  0.0000000E+00  0.0000000E+00
  0.3827655E+00  0.0000000E+00  0.0000000E+00  0.2000000E-12  0.0000000E+00  0.0000000E+00
  0.3847695E+00  0.0000000E+00  0.0000000E+00  0.2000000E-12  0.0000000E+00  0.0000000E+00
  0.3867735E+00  0.0000000E+00  0.0000000E+00  0.2000000E-12  0.0000000E+00  0.0000000E+00
  0.3887776E+00  0.0000000E+00  0.0000000E+00  0.2000000E-12  0.0000000E+00  0.0000000E+00
  0.3907816E+00  0.0000000E+00  0.0000000E+00  0.2000000E-12  0.0000000E+00  0.0000000E+00
  0.3927856E+00  0.0000000E+00  0.0000000E+00  0.2000000E-12  0.0000000E+00  0.0000000E+00
  0.3947896E+00  0.0000000E+00  0.0000000E+00  0.2000000E-12  0.0000000E+00  0.0000000E+00
  0.3967936E+00  0.0000000E+00  0.0000000E+00  0.2000000E-12  0.0000000E+00  0.0000000E+00
  0.3987976E+00  0.0000000E+00  0.0000000E+00  0.2000000E-12  0.0000000E+00  0.0000000E+00
  0.4008016E+00  0.0000000E+00  0.0000000E+00  0.2000000E-12  0.0000000E+00  0.0000000E+00
  0.4028056E+00  0.0000000E+00  0.0000000E+00  0.2000000E-12  0.0000000E+00  0.0000000E+00
  0.4048096E+00  0.0000000E+00  0.0000000E+00  0.2000000E-12  0.0000000E+00  0.0000000E+00
  0.4068136E+00  0.0000000E+00  0.0000000E+00  0.2000000E-12  0.0000000E+00  0.0000000E+00
  0.4088176E+00  0.0000000E+00  0.0000000E+00  0.2000000E-12  0.0000000E+00  0.0000000E+00
  0.4108216E+00  0.0000000E+00  0.0000000E+00  0.2000000E-12  0.0000000E+00  0.0000000E+00
  0.4128257E+00  0.0000000E+00  0.0000000E+00  0.2000000E-12  0.0000000E+00  0.0000000E+00
  0.4148297E+00  0.0000000E+00  0.0000000E+00  0.2000000E-12  0.0000000E+00  0.0000000E+00
  0.4168337E+00  0.0000000E+00  0.0000000E+00  0.2000000E-12  0.0000000E+00  0.0000000E+00
  0.4188377E+00  0.0000000E+00  0.0000000E+00  0.2000000E-12  0.0000000E+00  0.0000000E+00
  0.4208417E+00  0.0000000E+00  0.0000000E+00  0.2000000E-12  0.0000000E+00  0.0000000E+00
  0.4228457E+00  0.0000000E+00  0.0000000E+00  0.2000000E-12  0.0000000E+00  0.0000000E+00
  0.4248497E+00  0.0000000E+00  0.0000000E+00  0.2000000E-12  0.0000000E+00  0.0000000E+00
  0.4268537E+00  0.0000000E+00  0.0000000E+00  0.2000000E-12  0.0000000E+00  0.0000000E+00
  0.4288577E+00  0.0000000E+00  0.0000000E+00  0.2000000E-12  0.0000000E+00  0.0000000E+00
  0.4308617E+00  0.0000000E+00  0.0000000E+00  0.2000000E-12  0.0000000E+00  0.0000000E+00
  0.4328657E+00  0.0000000E+00  0.0000000E+00  0.2000000E-12  0.0000000E+00  0.0000000E+00
  0.4348697E+00  0.0000000E+00  0.0000000E+00  0.2000000E-12  0.0000000E+00  0.0000000E+00
  0.4368737E+00  0.0000000E+00  0.0000000E+00  0.2000000E-12  0.0000000E+00  0.0000000E+00
  0.4388778E+00  0.0000000E+00  0.0000000E+00  0.2000000E-12  0.0000000E+00  0.0000000E+00
  0.4408818E+00  0.0000000E+00  0.0000000E+00  0.2000000E-12  0.0000000E+00  0.0000000E+00
  0.4428858E+00  0.0000000E+00  0.0000000E+00  0.2000000E-12  0.0000000E+00  0.0000000E+00
  0.4448898E+00  0.0000000E+00  0.0000000E+00  0.2000000E-12  0.0000000E+00  0.0000000E+00
  0.4468938E+00  0.0000000E+00  0.0000000E+00  0.2000000E-12  0.0000000E+00  0.0000000E+00
  0.4488978E+00  0.0000000E+00  0.0000000E+00  0.2000000E-12  0.0000000E+00  0.0000000E+00
  0.4509018E+00  0.0000000E+00  0.0000000E+00  0.2000000E-12  0.0000000E+00  0.0000000E+00
  0.4529058E+00  0.0000000E+00  0.0000000E+00  0.2000000E-12  0.0000000E+00  0.0000000E+00
  0.4549098E+00  0.0000000E+00  0.0000000E+00  0.2000000E-12  0.0000000E+00  0.0000000E+00
  0.4569138E+00  0.0000000E+00  0.0000000E+00  0.2000000E-12  0.0000000E+00  0.0000000E+00
  0.4589178E+00  0.0000000E+00  0.0000000E+00  0.2000000E-12  0.0000000E+00  0.0000000E+00
  0.4609218E+00  0.0000000E+00  0.0000000E+00  0.2000000E-12  0.0000000E+00  0.0000000E+00
  0.4629259E+00  0.0000000E+00  0.0000000E+00  0.2000000E-12  0.0000000E+00  0.0000000E+00
  0.4649299E+00  0.0000000E+00  0.0000000E+00  0.2000000E-12  0.0000000E+00  0.0000000E+00
  0.4669339E+00  0.0000000E+00  0.0000000E+00  0.2000000E-12  0.0000000E+00  0.0000000E+00
  0.4689379E+00  0.0000000E+00  0.0000000E+00  0.2000000E-12  0.0000000E+00  0.0000000E+00
  0.4709419E+00  0.0000000E+00  0.0000000E+00  0.2000000E-12  0.0000000E+00  0.0000000E+00
  0.4729459E+00  0.0000000E+00  0.0000000E+00  0.2000000E-12  0.0000000E+00  0.0000000E+00
  0.4749499E+00  0.0000000E+00  0.0000000E+00  0.2000000E-12  0.0000000E+00  0.0000000E+00
  0.4769539E+00  0.0000000E+00  0.0000000E+00  0.2000000E-12  0.0000000E+00  0.0000000E+00
  0.4789579E+00  0.0000000E+00  0.0000000E+00  0.2000000E-12  0.0000000E+00  0.0000000E+00
  0.4809619E+00  0.0000000E+00  0.0000000E+00  0.2000000E-12  0.0000000E+00  0.0000000E+00
  0.4829659E+00  0.0000000E+00  0.0000000E+00  0.2000000E-12  0.0000000E+00  0.0000000E+00
  0.4849699E+00  0.0000000E+00  0.0000000E+00  0.2000000E-12  0.0000000E+00  0.0000000E+00
  0.4869739E+00  0.0000000E+00  0.0000000E+00  0.2000000E-12  0.0000000E+00  0.0000000E+00
  0.4889780E+00  0.0000000E+00  0.0000000E+00  0.2000000E-12  0.0000000E+00  0.0000000E+00
  0.4909820E+00  0.0000000E+00  0.0000000E+00  0.2000000E-12  0.0000000E+00  0.0000000E+00
  0.4929860E+00  0.0000000E+00  0.0000000E+00  0.2000000E-12  0.0000000E+00  0.0000000E+00
  0.4949900E+00  0.0000000E+00  0.0000000E+00  0.2000000E-12  0.0000000E+00  0.0000000E+00
  0.4969940E+00  0.0000000E+00  0.0000000E+00  0.2000000E-12  0.0000000E+00  0.0000000E+00
  0.4989980E+00  0.0000000E+00  0.0000000E+00  0.2000000E-12  0.0000000E+00  0.0000000E+00
  0.5010020E+00  0.0000000E+00  0.0000000E+00  0.2000000E-12  0.0000000E+00  0.0000000E+00
  0.5030060E+00  0.0000000E+00  0.0000000E+00  0.2000000E-12  0.0000000E+00  0.0000000E+00
  0.5050100E+00  0.0000000E+00  0.0000000E+00  0.2000000E-12  0.0000000E+00  0.0000000E+00
  0.5070140E+00  0.0000000E+00  0.0000000E+00  0.2000000E-12  0.0000000E+00  0.0000000E+00
  0.5090180E+00  0.0000000E+00  0.0000000E+00  0.2000000E-12  0.0000000E+00  0.0000000E+00
  0.5110220E+00  0.0000000E+00  0.0000000E+00  0.2000000E-12  0.0000000E+00  0.0000000E+00
  0.5130261E+00  0.0000000E+00  0.0000000E+00  0.2000000E-12  0.0000000E+00  0.0000000E+00
  0.5150301E+00  0.0000000E+00  0.0000000E+00  0.2000000E-12  0.0000000E+00  0.0000000E+00
  0.5170341E+00  0.0000000E+00  0.0000000E+00  0.2000000E-12  0.0000000E+00  0.0000000E+00
  0.5190381E+00  0.0000000E+00  0.0000000E+00  0.2000000E-12  0.0000000E+00  0.0000000E+00
  0.5210421E+00  0.0000000E+00  0.0000000E+00  0.2000000E-12  0.0000000E+00  0.0000000E+00
  0.5230461E+00  0.0000000E+00  0.0000000E+00  0.2000000E-12  0.0000000E+00  0.0000000E+00
  0.5250501E+00  0.0000000E+00  0.0000000E+00  0.2000000E-12  0.0000000E+00  0.0000000E+00
  0.5270541E+00  0.0000000E+00  0.0000000E+00  0.2000000E-12  0.0000000E+00  0.0000000E+00
  0.5290581E+00  0.0000000E+00  0.0000000E+00  0.2000000E-12  0.0000000E+00  0.0000000E+00
  0.5310621E+00  0.0000000E+00  0.0000000E+00  0.2000000E-12  0.0000000E+00  0.0000000E+00
  0.5330661E+00  0.0000000E+00  0.0000000E+00  0.2000000E-12  0.0000000E+00  0.0000000E+00
  0.5350701E+00  0.0000000E+00  0.0000000E+00  0.2000000E-12  0.0000000E+00  0.0000000E+00
  0.5370741E+00  0.0000000E+00  0.0000000E+00  0.2000000E-12  0.0000000E+00  0.0000000E+00
  0.5390782E+00  0.0000000E+00  0.0000000E+00  0.2000000E-12  0.0000000E+00  0.0000000E+00
  0.5410822E+00  0.0000000E+00  0.0000000E+00  0.2000000E-12  0.0000000E+00  0.0000000E+00
  0.5430862E+00  0.0000000E+00  0.0000000E+00  0.2000000E-12  0.0000000E+00  0.0000000E+00
  0.5450902E+00  0.0000000E+00  0.0000000E+00  0.2000000E-12  0.0000000E+00  0.0000000E+00
  0.5470942E+00  0.0000000E+00  0.0000000E+00  0.2000000E-12  0.0000000E+00  0.0000000E+00
  0.5490982E+00  0.0000000E+00  0.0000000E+00  0.2000000E-12  0.0000000E+00  0.0000000E+00
  0.5511022E+00  0.0000000E+00  0.0000000E+00  0.2000000E-12  0.0000000E+00  0.0000000E+00
  0.5531062E+00  0.0000000E+00  0.0000000E+00  0.2000000E-12  0.0000000E+00  0.0000000E+00
  0.5551102E+00  0.0000000E+00  0.0000000E+00  0.2000000E-12  0.0000000E+00  0.0000000E+00
  0.5571142E+00  0.0000000E+00  0.0000000E+00  0.2000000E-12  0.0000000E+00  0.0000000E+00
  0.5591182E+00  0.0000000E+00  0.0000000E+00  0.2000000E-12  0.0000000E+00  0.0000000E+00
  0.5611222E+00  0.0000000E+00  0.0000000E+00  0.2000000E-12  0.0000000E+00  0.0000000E+00
  0.5631263E+00  0.0000000E+00  0.0000000E+00  0.2000000E-12  0.0000000E+00  0.0000000E+00
  0.5651303E+00  0.0000000E+00  0.0000000E+00  0.2000000E-12  0.0000000E+00  0.0000000E+00
  0.5671343E+00  0.0000000E+00  0.0000000E+00  0.2000000E-12  0.0000000E+00  0.0000000E+00
  0.5691383E+00  0.0000000E+00  0.0000000E+00  0.2000000E-12  0.0000000E+00  0.0000000E+00
  0.5711423E+00  0.0000000E+00  0.0000000E+00  0.2000000E-12  0.0000000E+00  0.0000000E+00
  0.5731463E+00  0.0000000E+00  0.0000000E+00  0.2000000E-12  0.0000000E+00  0.0000000E+00
  0.5751503E+00  0.0000000E+00  0.0000000E+00  0.2000000E-12  0.0000000E+00  0.0000000E+00
  0.5771543E+00  0.0000000E+00  0.0000000E+00  0.2000000E-12  0.0000000E+00  0.0000000E+00
  0.5791583E+00  0.0000000E+00  0.0000000E+00  0.2000000E-12  0.0000000E+00  0.0000000E+00
  0.5811623E+00  0.0000000E+00  0.0000000E+00  0.2000000E-12  0.0000000E+00  0.0000000E+00
  0.5831663E+00  0.0000000E+00  0.0000000E+00  0.2000000E-12  0.0000000E+00  0.0000000E+00
  0.5851703E+00  0.0000000E+00  0.0000000E+00  0.2000000E-12  0.0000000E+00  0.0000000E+00
  0.5871743E+00  0.0000000E+00  0.0000000E+00  0.2000000E-12  0.0000000E+00  0.0000000E+00
  0.5891784E+00  0.0000000E+00  0.0000000E+00  0.2000000E-12  0.0000000E+00  0.0000000E+00
  0.5911824E+00  0.0000000E+00  0.0000000E+00  0.2000000E-12  0.0000000E+00  0.0000000E+00
  0.5931864E+00  0.0000000E+00  0.0000000E+00  0.2000000E-12  0.0000000E+00  0.0000000E+00
  0.5951904E+00  0.0000000E+00  0.0000000E+00  0.2000000E-12  0.0000000E+00  0.0000000E+00
  0.5971944E+00  0.0000000E+00  0.0000000E+00  0.2000000E-12  0.0000000E+00  0.0000000E+00
  0.5991984E+00  0.0000000E+00  0.0000000E+00  0.2000000E-12  0.0000000E+00  0.0000000E+00
  0.6012024E+00  0.0000000E+00  0.0000000E+00  0.2000000E-12  0.0000000E+00  0.0000000E+00
  0.6032064E+00  0.0000000E+00  0.0000000E+00  0.2000000E-12  0.0000000E+00  0.0000000E+00
  0.6052104E+00  0.0000000E+00  0.0000000E+00  0.2000000E-12  0.0000000E+00  0.0000000E+00
  0.6072144E+00  0.0000000E+00  0.0000000E+00  0.2000000E-12  0.0000000E+00  0.0000000E+00
  0.6092184E+00  0.0000000E+00  0.0000000E+00  0.2000000E-12  0.0000000E+00  0.0000000E+00
  0.6112224E+00  0.0000000E+00  0.0000000E+00  0.2000000E-12  0.0000000E+00  0.0000000E+00
  0.6132265E+00  0.0000000E+00  0.0000000E+00  0.2000000E-12  0.0000000E+00  0.0000000E+00
  0.6152305E+00  0.0000000E+00  0.0000000E+00  0.2000000E-12  0.0000000E+00  0.0000000E+00
  0.6172345E+00  0.0000000E+00  0.0000000E+00  0.2000000E-12  0.0000000E+00  0.0000000E+00
  0.6192385E+00  0.0000000E+00  0.0000000E+00  0.2000000E-12  0.0000000E+00  0.0000000E+00
  0.6212425E+00  0.0000000E+00  0.0000000E+00  0.2000000E-12  0.0000000E+00  0.0000000E+00
  0.6232465E+00  0.0000000E+00  0.0000000E+00  0.2000000E-12  0.0000000E+00  0.0000000E+00
  0.6252505E+00  0.0000000E+00  0.0000000E+00  0.2000000E-12  0.0000000E+00  0.0000000E+00
  0.6272545E+00  0.0000000E+00  0.0000000E+00  0.2000000E-12  0.0000000E+00  0.0000000E+00
  0.6292585E+00  0.0000000E+00  0.0000000E+00  0.2000000E-12  0.0000000E+00  0.0000000E+00
  0.6312625E+00  0.0000000E+00  0.0000000E+00  0.2000000E-12  0.0000000E+00  0.0000000E+00
  0.6332665E+00  0.0000000E+00  0.0000000E+00  0.2000000E-12  0.0000000E+00  0.0000000E+00
  0.6352705E+00  0.0000000E+00  0.0000000E+00  0.2000000E-12  0.0000000E+00  0.0000000E+00
  0.6372745E+00  0.0000000E+00  0.0000000E+00  0.2000000E-12  0.0000000E+00  0.0000000E+00
  0.6392786E+00  0.0000000E+00  0.0000000E+00  0.2000000E-12  0.0000000E+00  0.0000000E+00
  0.6412826E+00  0.0000000E+00  0.0000000E+00  0.2000000E-12  0.0000000E+00  0.0000000E+00
  0.6432866E+00  0.0000000E+00  0.0000000E+00  0.2000000E-12  0.0000000E+00  0.0000000E+00
  0.6452906E+00  0.0000000E+00  0.0000000E+00  0.2000000E-12  0.0000000E+00  0.0000000E+00
  0.6472946E+00  0.0000000E+00  0.0000000E+00  0.2000000E-12  0.0000000E+00  0.0000000E+00