title = "dataset transrc"
variables = "x", "y", "z","h+1","co3-2"
zone t = "T_j, T =  7.500E-01 days", i =  141, j =    1, k =    1,  f=point
  0.0000000E+00  0.0000000E+00  0.0000000E+00  0.2000000E-06  0.1000000E-06
  0.0000000E+00  0.0000000E+00  0.1428571E-02  0.1982914E-03  0.9914569E-04
  0.0000000E+00  0.0000000E+00  0.2857143E-02  0.1428312E-02  0.7141562E-03
  0.0000000E+00  0.0000000E+00  0.4285714E-02  0.4950901E-02  0.2475451E-02
  0.0000000E+00  0.0000000E+00  0.5714286E-02  0.9757226E-02  0.4878613E-02
  0.0000000E+00  0.0000000E+00  0.7142857E-02  0.1615580E-01  0.8077900E-02
  0.0000000E+00  0.0000000E+00  0.8571429E-02  0.1823175E-01  0.9115875E-02
  0.0000000E+00  0.0000000E+00  0.1000000E-01  0.1843060E-01  0.9215301E-02
  0.0000000E+00  0.0000000E+00  0.1142857E-01  0.1778525E-01  0.8892623E-02
  0.0000000E+00  0.0000000E+00  0.1285714E-01  0.1603952E-01  0.8019760E-02
  0.0000000E+00  0.0000000E+00  0.1428571E-01  0.1332027E-01  0.6660133E-02
  0.0000000E+00  0.0000000E+00  0.1571429E-01  0.1001645E-01  0.5008226E-02
  0.0000000E+00  0.0000000E+00  0.1714286E-01  0.6707602E-02  0.3353801E-02
  0.0000000E+00  0.0000000E+00  0.1857143E-01  0.3942534E-02  0.1971267E-02
  0.0000000E+00  0.0000000E+00  0.2000000E-01  0.2009217E-02  0.1004608E-02
  0.0000000E+00  0.0000000E+00  0.2142857E-01  0.8786186E-03  0.4393093E-03
  0.0000000E+00  0.0000000E+00  0.2285714E-01  0.3267370E-03  0.1633685E-03
  0.0000000E+00  0.0000000E+00  0.2428571E-01  0.1025564E-03  0.5127820E-04
  0.0000000E+00  0.0000000E+00  0.2571429E-01  0.2704307E-04  0.1352154E-04
  0.0000000E+00  0.0000000E+00  0.2714286E-01  0.6070306E-05  0.3035153E-05
  0.0000000E+00  0.0000000E+00  0.2857143E-01  0.1253748E-05  0.6268740E-06
  0.0000000E+00  0.0000000E+00  0.3000000E-01  0.3640666E-06  0.1820333E-06
  0.0000000E+00  0.0000000E+00  0.3142857E-01  0.2263549E-06  0.1131775E-06
  0.0000000E+00  0.0000000E+00  0.3285714E-01  0.2045519E-06  0.1022760E-06
  0.0000000E+00  0.0000000E+00  0.3428571E-01  0.2007783E-06  0.1003892E-06
  0.0000000E+00  0.0000000E+00  0.3571429E-01  0.2001273E-06  0.1000637E-06
  0.0000000E+00  0.0000000E+00  0.3714286E-01  0.2000202E-06  0.1000101E-06
  0.0000000E+00  0.0000000E+00  0.3857143E-01  0.2000032E-06  0.1000016E-06
  0.0000000E+00  0.0000000E+00  0.4000000E-01  0.2000005E-06  0.1000002E-06
  0.0000000E+00  0.0000000E+00  0.4142857E-01  0.2000001E-06  0.1000000E-06
  0.0000000E+00  0.0000000E+00  0.4285714E-01  0.2000000E-06  0.1000000E-06
  0.0000000E+00  0.0000000E+00  0.4428571E-01  0.2000000E-06  0.1000000E-06
  0.0000000E+00  0.0000000E+00  0.4571429E-01  0.2000000E-06  0.1000000E-06
  0.0000000E+00  0.0000000E+00  0.4714286E-01  0.2000000E-06  0.1000000E-06
  0.0000000E+00  0.0000000E+00  0.4857143E-01  0.2000000E-06  0.1000000E-06
  0.0000000E+00  0.0000000E+00  0.5000000E-01  0.2000000E-06  0.1000000E-06
  0.0000000E+00  0.0000000E+00  0.5142857E-01  0.2000000E-06  0.1000000E-06
  0.0000000E+00  0.0000000E+00  0.5285714E-01  0.2000000E-06  0.1000000E-06
  0.0000000E+00  0.0000000E+00  0.5428571E-01  0.2000000E-06  0.1000000E-06
  0.0000000E+00  0.0000000E+00  0.5571429E-01  0.2000000E-06  0.1000000E-06
  0.0000000E+00  0.0000000E+00  0.5714286E-01  0.2000000E-06  0.1000000E-06
  0.0000000E+00  0.0000000E+00  0.5857143E-01  0.2000000E-06  0.1000000E-06
  0.0000000E+00  0.0000000E+00  0.6000000E-01  0.2000000E-06  0.1000000E-06
  0.0000000E+00  0.0000000E+00  0.6142857E-01  0.2000000E-06  0.1000000E-06
  0.0000000E+00  0.0000000E+00  0.6285714E-01  0.2000000E-06  0.1000000E-06
  0.0000000E+00  0.0000000E+00  0.6428571E-01  0.2000000E-06  0.1000000E-06
  0.0000000E+00  0.0000000E+00  0.6571429E-01  0.2000000E-06  0.1000000E-06
  0.0000000E+00  0.0000000E+00  0.6714286E-01  0.2000000E-06  0.1000000E-06
  0.0000000E+00  0.0000000E+00  0.6857143E-01  0.2000000E-06  0.1000000E-06
  0.0000000E+00  0.0000000E+00  0.7000000E-01  0.2000000E-06  0.1000000E-06
  0.0000000E+00  0.0000000E+00  0.7142857E-01  0.2000000E-06  0.1000000E-06
  0.0000000E+00  0.0000000E+00  0.7285714E-01  0.2000000E-06  0.1000000E-06
  0.0000000E+00  0.0000000E+00  0.7428571E-01  0.2000000E-06  0.1000000E-06
  0.0000000E+00  0.0000000E+00  0.7571429E-01  0.2000000E-06  0.1000000E-06
  0.0000000E+00  0.0000000E+00  0.7714286E-01  0.2000000E-06  0.1000000E-06
  0.0000000E+00  0.0000000E+00  0.7857143E-01  0.2000000E-06  0.1000000E-06
  0.0000000E+00  0.0000000E+00  0.8000000E-01  0.2000000E-06  0.1000000E-06
  0.0000000E+00  0.0000000E+00  0.8142857E-01  0.2000000E-06  0.1000000E-06
  0.0000000E+00  0.0000000E+00  0.8285714E-01  0.2000000E-06  0.1000000E-06
  0.0000000E+00  0.0000000E+00  0.8428571E-01  0.2000000E-06  0.1000000E-06
  0.0000000E+00  0.0000000E+00  0.8571429E-01  0.2000000E-06  0.1000000E-06
  0.0000000E+00  0.0000000E+00  0.8714286E-01  0.2000000E-06  0.1000000E-06
  0.0000000E+00  0.0000000E+00  0.8857143E-01  0.2000000E-06  0.1000000E-06
  0.0000000E+00  0.0000000E+00  0.9000000E-01  0.2000000E-06  0.1000000E-06
  0.0000000E+00  0.0000000E+00  0.9142857E-01  0.2000000E-06  0.1000000E-06
  0.0000000E+00  0.0000000E+00  0.9285714E-01  0.2000000E-06  0.1000000E-06
  0.0000000E+00  0.0000000E+00  0.9428571E-01  0.2000000E-06  0.1000000E-06
  0.0000000E+00  0.0000000E+00  0.9571429E-01  0.2000000E-06  0.1000000E-06
  0.0000000E+00  0.0000000E+00  0.9714286E-01  0.2000000E-06  0.1000000E-06
  0.0000000E+00  0.0000000E+00  0.9857143E-01  0.2000000E-06  0.1000000E-06
  0.0000000E+00  0.0000000E+00  0.1000000E+00  0.2000000E-06  0.1000000E-06
  0.0000000E+00  0.0000000E+00  0.1014286E+00  0.2000000E-06  0.1000000E-06
  0.0000000E+00  0.0000000E+00  0.1028571E+00  0.2000000E-06  0.1000000E-06
  0.0000000E+00  0.0000000E+00  0.1042857E+00  0.2000000E-06  0.1000000E-06
  0.0000000E+00  0.0000000E+00  0.1057143E+00  0.2000000E-06  0.1000000E-06
  0.0000000E+00  0.0000000E+00  0.1071429E+00  0.2000000E-06  0.1000000E-06
  0.0000000E+00  0.0000000E+00  0.1085714E+00  0.2000000E-06  0.1000000E-06
  0.0000000E+00  0.0000000E+00  0.1100000E+00  0.2000000E-06  0.1000000E-06
  0.0000000E+00  0.0000000E+00  0.1114286E+00  0.2000000E-06  0.1000000E-06
  0.0000000E+00  0.0000000E+00  0.1128571E+00  0.2000000E-06  0.1000000E-06
  0.0000000E+00  0.0000000E+00  0.1142857E+00  0.2000000E-06  0.1000000E-06
  0.0000000E+00  0.0000000E+00  0.1157143E+00  0.2000000E-06  0.1000000E-06
  0.0000000E+00  0.0000000E+00  0.1171429E+00  0.2000000E-06  0.1000000E-06
  0.0000000E+00  0.0000000E+00  0.1185714E+00  0.2000000E-06  0.1000000E-06
  0.0000000E+00  0.0000000E+00  0.1200000E+00  0.2000000E-06  0.1000000E-06
  0.0000000E+00  0.0000000E+00  0.1214286E+00  0.2000000E-06  0.1000000E-06
  0.0000000E+00  0.0000000E+00  0.1228571E+00  0.2000000E-06  0.1000000E-06
  0.0000000E+00  0.0000000E+00  0.1242857E+00  0.2000000E-06  0.1000000E-06
  0.0000000E+00  0.0000000E+00  0.1257143E+00  0.2000000E-06  0.1000000E-06
  0.0000000E+00  0.0000000E+00  0.1271429E+00  0.2000000E-06  0.1000000E-06
  0.0000000E+00  0.0000000E+00  0.1285714E+00  0.2000000E-06  0.1000000E-06
  0.0000000E+00  0.0000000E+00  0.1300000E+00  0.2000000E-06  0.1000000E-06
  0.0000000E+00  0.0000000E+00  0.1314286E+00  0.2000000E-06  0.1000000E-06
  0.0000000E+00  0.0000000E+00  0.1328571E+00  0.2000000E-06  0.1000000E-06
  0.0000000E+00  0.0000000E+00  0.1342857E+00  0.2000000E-06  0.1000000E-06
  0.0000000E+00  0.0000000E+00  0.1357143E+00  0.2000000E-06  0.1000000E-06
  0.0000000E+00  0.0000000E+00  0.1371429E+00  0.2000000E-06  0.1000000E-06
  0.0000000E+00  0.0000000E+00  0.1385714E+00  0.2000000E-06  0.1000000E-06
  0.0000000E+00  0.0000000E+00  0.1400000E+00  0.2000000E-06  0.1000000E-06
  0.0000000E+00  0.0000000E+00  0.1414286E+00  0.2000000E-06  0.1000000E-06
  0.0000000E+00  0.0000000E+00  0.1428571E+00  0.2000000E-06  0.1000000E-06
  0.0000000E+00  0.0000000E+00  0.1442857E+00  0.2000000E-06  0.1000000E-06
  0.0000000E+00  0.0000000E+00  0.1457143E+00  0.2000000E-06  0.1000000E-06
  0.0000000E+00  0.0000000E+00  0.1471429E+00  0.2000000E-06  0.1000000E-06
  0.0000000E+00  0.0000000E+00  0.1485714E+00  0.2000000E-06  0.1000000E-06
  0.0000000E+00  0.0000000E+00  0.1500000E+00  0.2000000E-06  0.1000000E-06
  0.0000000E+00  0.0000000E+00  0.1514286E+00  0.2000000E-06  0.1000000E-06
  0.0000000E+00  0.0000000E+00  0.1528571E+00  0.2000000E-06  0.1000000E-06
  0.0000000E+00  0.0000000E+00  0.1542857E+00  0.2000000E-06  0.1000000E-06
  0.0000000E+00  0.0000000E+00  0.1557143E+00  0.2000000E-06  0.1000000E-06
  0.0000000E+00  0.0000000E+00  0.1571429E+00  0.2000000E-06  0.1000000E-06
  0.0000000E+00  0.0000000E+00  0.1585714E+00  0.2000000E-06  0.1000000E-06
  0.0000000E+00  0.0000000E+00  0.1600000E+00  0.2000000E-06  0.1000000E-06
  0.0000000E+00  0.0000000E+00  0.1614286E+00  0.2000000E-06  0.1000000E-06
  0.0000000E+00  0.0000000E+00  0.1628571E+00  0.2000000E-06  0.1000000E-06
  0.0000000E+00  0.0000000E+00  0.1642857E+00  0.2000000E-06  0.1000000E-06
  0.0000000E+00  0.0000000E+00  0.1657143E+00  0.2000000E-06  0.1000000E-06
  0.0000000E+00  0.0000000E+00  0.1671429E+00  0.2000000E-06  0.1000000E-06
  0.0000000E+00  0.0000000E+00  0.1685714E+00  0.2000000E-06  0.1000000E-06
  0.0000000E+00  0.0000000E+00  0.1700000E+00  0.2000000E-06  0.1000000E-06
  0.0000000E+00  0.0000000E+00  0.1714286E+00  0.2000000E-06  0.1000000E-06
  0.0000000E+00  0.0000000E+00  0.1728571E+00  0.2000000E-06  0.1000000E-06
  0.0000000E+00  0.0000000E+00  0.1742857E+00  0.2000000E-06  0.1000000E-06
  0.0000000E+00  0.0000000E+00  0.1757143E+00  0.2000000E-06  0.1000000E-06
  0.0000000E+00  0.0000000E+00  0.1771429E+00  0.2000000E-06  0.1000000E-06
  0.0000000E+00  0.0000000E+00  0.1785714E+00  0.2000000E-06  0.1000000E-06
  0.0000000E+00  0.0000000E+00  0.1800000E+00  0.2000000E-06  0.1000000E-06
  0.0000000E+00  0.0000000E+00  0.1814286E+00  0.2000000E-06  0.1000000E-06
  0.0000000E+00  0.0000000E+00  0.1828571E+00  0.2000000E-06  0.1000000E-06
  0.0000000E+00  0.0000000E+00  0.1842857E+00  0.2000000E-06  0.1000000E-06
  0.0000000E+00  0.0000000E+00  0.1857143E+00  0.2000000E-06  0.1000000E-06
  0.0000000E+00  0.0000000E+00  0.1871429E+00  0.2000000E-06  0.1000000E-06
  0.0000000E+00  0.0000000E+00  0.1885714E+00  0.2000000E-06  0.1000000E-06
  0.0000000E+00  0.0000000E+00  0.1900000E+00  0.2000000E-06  0.1000000E-06
  0.0000000E+00  0.0000000E+00  0.1914286E+00  0.2000000E-06  0.1000000E-06
  0.0000000E+00  0.0000000E+00  0.1928571E+00  0.2000000E-06  0.1000000E-06
  0.0000000E+00  0.0000000E+00  0.1942857E+00  0.2000000E-06  0.1000000E-06
  0.0000000E+00  0.0000000E+00  0.1957143E+00  0.2000000E-06  0.1000000E-06
  0.0000000E+00  0.0000000E+00  0.1971429E+00  0.2000000E-06  0.1000000E-06
  0.0000000E+00  0.0000000E+00  0.1985714E+00  0.2000000E-06  0.1000000E-06
  0.0000000E+00  0.0000000E+00  0.2000000E+00  0.2000000E-06  0.1000000E-06
