title = "dataset test1"
variables = "x", "y", "z","h+1","co3-2"
zone t = "T_j, T =  4.500E+00 days", i =  141, j =    1, k =    1,  f=point
   .0000000E+00   .0000000E+00   .0000000E+00   .2000000E-06   .1000000E-06
   .0000000E+00   .0000000E+00   .1428571E-02   .2000000E-06   .1000000E-06
   .0000000E+00   .0000000E+00   .2857143E-02   .2000000E-06   .1000000E-06
   .0000000E+00   .0000000E+00   .4285714E-02   .2000000E-06   .1000000E-06
   .0000000E+00   .0000000E+00   .5714286E-02   .2000000E-06   .1000000E-06
   .0000000E+00   .0000000E+00   .7142857E-02   .2000000E-06   .1000000E-06
   .0000000E+00   .0000000E+00   .8571429E-02   .2000000E-06   .1000000E-06
   .0000000E+00   .0000000E+00   .1000000E-01   .2000000E-06   .1000000E-06
   .0000000E+00   .0000000E+00   .1142857E-01   .2000000E-06   .1000000E-06
   .0000000E+00   .0000000E+00   .1285714E-01   .2000000E-06   .1000000E-06
   .0000000E+00   .0000000E+00   .1428571E-01   .2000000E-06   .1000000E-06
   .0000000E+00   .0000000E+00   .1571429E-01   .2000000E-06   .1000000E-06
   .0000000E+00   .0000000E+00   .1714286E-01   .2000000E-06   .1000000E-06
   .0000000E+00   .0000000E+00   .1857143E-01   .2000000E-06   .1000000E-06
   .0000000E+00   .0000000E+00   .2000000E-01   .2000000E-06   .1000000E-06
   .0000000E+00   .0000000E+00   .2142857E-01   .2000000E-06   .1000000E-06
   .0000000E+00   .0000000E+00   .2285714E-01   .2000000E-06   .1000000E-06
   .0000000E+00   .0000000E+00   .2428571E-01   .2000000E-06   .1000000E-06
   .0000000E+00   .0000000E+00   .2571429E-01   .2000000E-06   .1000000E-06
   .0000000E+00   .0000000E+00   .2714286E-01   .2000001E-06   .1000000E-06
   .0000000E+00   .0000000E+00   .2857143E-01   .2000003E-06   .1000002E-06
   .0000000E+00   .0000000E+00   .3000000E-01   .2000012E-06   .1000006E-06
   .0000000E+00   .0000000E+00   .3142857E-01   .2000048E-06   .1000024E-06
   .0000000E+00   .0000000E+00   .3285714E-01   .2000172E-06   .1000086E-06
   .0000000E+00   .0000000E+00   .3428571E-01   .2000588E-06   .1000294E-06
   .0000000E+00   .0000000E+00   .3571429E-01   .2001912E-06   .1000956E-06
   .0000000E+00   .0000000E+00   .3714286E-01   .2005914E-06   .1002957E-06
   .0000000E+00   .0000000E+00   .3857143E-01   .2017435E-06   .1008717E-06
   .0000000E+00   .0000000E+00   .4000000E-01   .2049067E-06   .1024533E-06
   .0000000E+00   .0000000E+00   .4142857E-01   .2131997E-06   .1065998E-06
   .0000000E+00   .0000000E+00   .4285714E-01   .2339877E-06   .1169938E-06
   .0000000E+00   .0000000E+00   .4428571E-01   .2838677E-06   .1419339E-06
   .0000000E+00   .0000000E+00   .4571429E-01   .3985575E-06   .1992787E-06
   .0000000E+00   .0000000E+00   .4714286E-01   .6515133E-06   .3257566E-06
   .0000000E+00   .0000000E+00   .4857143E-01   .1187180E-05   .5935902E-06
   .0000000E+00   .0000000E+00   .5000000E-01   .2277256E-05   .1138628E-05
   .0000000E+00   .0000000E+00   .5142857E-01   .4410712E-05   .2205356E-05
   .0000000E+00   .0000000E+00   .5285714E-01   .8429602E-05   .4214801E-05
   .0000000E+00   .0000000E+00   .5428571E-01   .1572130E-04   .7860651E-05
   .0000000E+00   .0000000E+00   .5571429E-01   .2847196E-04   .1423598E-04
   .0000000E+00   .0000000E+00   .5714286E-01   .4997373E-04   .2498686E-04
   .0000000E+00   .0000000E+00   .5857143E-01   .8495897E-04   .4247948E-04
   .0000000E+00   .0000000E+00   .6000000E-01   .1399092E-03   .6995459E-04
   .0000000E+00   .0000000E+00   .6142857E-01   .2232587E-03   .1116294E-03
   .0000000E+00   .0000000E+00   .6285714E-01   .3453907E-03   .1726953E-03
   .0000000E+00   .0000000E+00   .6428571E-01   .5183141E-03   .2591571E-03
   .0000000E+00   .0000000E+00   .6571429E-01   .7549263E-03   .3774632E-03
   .0000000E+00   .0000000E+00   .6714286E-01   .1067815E-02   .5339073E-03
   .0000000E+00   .0000000E+00   .6857143E-01   .1467616E-02   .7338079E-03
   .0000000E+00   .0000000E+00   .7000000E-01   .1961089E-02   .9805446E-03
   .0000000E+00   .0000000E+00   .7142857E-01   .2549091E-02   .1274546E-02
   .0000000E+00   .0000000E+00   .7285714E-01   .3224780E-02   .1612390E-02
   .0000000E+00   .0000000E+00   .7428571E-01   .3972660E-02   .1986330E-02
   .0000000E+00   .0000000E+00   .7571429E-01   .4767196E-02   .2383598E-02
   .0000000E+00   .0000000E+00   .7714286E-01   .5578242E-02   .2789121E-02
   .0000000E+00   .0000000E+00   .7857143E-01   .6360371E-02   .3180185E-02
   .0000000E+00   .0000000E+00   .8000000E-01   .7086673E-02   .3543336E-02
   .0000000E+00   .0000000E+00   .8142857E-01   .7686039E-02   .3843019E-02
   .0000000E+00   .0000000E+00   .8285714E-01   .8171646E-02   .4085823E-02
   .0000000E+00   .0000000E+00   .8428571E-01   .8472681E-02   .4236341E-02
   .0000000E+00   .0000000E+00   .8571429E-01   .8445682E-02   .4222841E-02
   .0000000E+00   .0000000E+00   .8714286E-01   .8307305E-02   .4153653E-02
   .0000000E+00   .0000000E+00   .8857143E-01   .8011458E-02   .4005729E-02
   .0000000E+00   .0000000E+00   .9000000E-01   .7566226E-02   .3783113E-02
   .0000000E+00   .0000000E+00   .9142857E-01   .6996931E-02   .3498466E-02
   .0000000E+00   .0000000E+00   .9285714E-01   .6336531E-02   .3168266E-02
   .0000000E+00   .0000000E+00   .9428571E-01   .5620787E-02   .2810394E-02
   .0000000E+00   .0000000E+00   .9571429E-01   .4884716E-02   .2442358E-02
   .0000000E+00   .0000000E+00   .9714286E-01   .4159827E-02   .2079914E-02
   .0000000E+00   .0000000E+00   .9857143E-01   .3472178E-02   .1736089E-02
   .0000000E+00   .0000000E+00   .1000000E+00   .2841289E-02   .1420645E-02
   .0000000E+00   .0000000E+00   .1014286E+00   .2279872E-02   .1139937E-02
   .0000000E+00   .0000000E+00   .1028571E+00   .1794243E-02   .8971228E-03
   .0000000E+00   .0000000E+00   .1042857E+00   .1385226E-02   .6926149E-03
   .0000000E+00   .0000000E+00   .1057143E+00   .1049355E-02   .5246795E-03
   .0000000E+00   .0000000E+00   .1071429E+00   .7801525E-03   .3900788E-03
   .0000000E+00   .0000000E+00   .1085714E+00   .5693605E-03   .2846830E-03
   .0000000E+00   .0000000E+00   .1100000E+00   .4079836E-03   .2039947E-03
   .0000000E+00   .0000000E+00   .1114286E+00   .2871090E-03   .1435573E-03
   .0000000E+00   .0000000E+00   .1128571E+00   .1984753E-03   .9924022E-04
   .0000000E+00   .0000000E+00   .1142857E+00   .1348155E-03   .6740973E-04
   .0000000E+00   .0000000E+00   .1157143E+00   .9000790E-04   .4500532E-04
   .0000000E+00   .0000000E+00   .1171429E+00   .5908699E-04   .2954404E-04
   .0000000E+00   .0000000E+00   .1185714E+00   .3815790E-04   .1907865E-04
   .0000000E+00   .0000000E+00   .1200000E+00   .2425766E-04   .1212778E-04
   .0000000E+00   .0000000E+00   .1214286E+00   .1519581E-04   .7596037E-05
   .0000000E+00   .0000000E+00   .1228571E+00   .9394533E-05   .4695067E-05
   .0000000E+00   .0000000E+00   .1242857E+00   .5746851E-05   .2870648E-05
   .0000000E+00   .0000000E+00   .1257143E+00   .3492702E-05   .1743768E-05
   .0000000E+00   .0000000E+00   .1271429E+00   .2124020E-05   .1059143E-05
   .0000000E+00   .0000000E+00   .1285714E+00   .1306448E-05   .6509277E-06
   .0000000E+00   .0000000E+00   .1300000E+00   .8265801E-06   .4109278E-06
   .0000000E+00   .0000000E+00   .1314286E+00   .5491869E-06   .2729056E-06
   .0000000E+00   .0000000E+00   .1328571E+00   .3916489E-06   .1941765E-06
   .0000000E+00   .0000000E+00   .1342857E+00   .3035115E-06   .1506699E-06
   .0000000E+00   .0000000E+00   .1357143E+00   .2550018E-06   .1264849E-06
   .0000000E+00   .0000000E+00   .1371429E+00   .2288059E-06   .1137632E-06
   .0000000E+00   .0000000E+00   .1385714E+00   .2147721E-06   .1068166E-06
   .0000000E+00   .0000000E+00   .1400000E+00   .2075160E-06   .1034086E-06
   .0000000E+00   .0000000E+00   .1414286E+00   .2036916E-06   .1015575E-06
   .0000000E+00   .0000000E+00   .1428571E+00   .2018284E-06   .1007442E-06
   .0000000E+00   .0000000E+00   .1442857E+00   .2008457E-06   .1002976E-06
   .0000000E+00   .0000000E+00   .1457143E+00   .2004068E-06   .1001348E-06
   .0000000E+00   .0000000E+00   .1471429E+00   .2001714E-06   .1000430E-06
   .0000000E+00   .0000000E+00   .1485714E+00   .2000794E-06   .1000185E-06
   .0000000E+00   .0000000E+00   .1500000E+00   .2000286E-06   .1000043E-06
   .0000000E+00   .0000000E+00   .1514286E+00   .2000126E-06   .1000018E-06
   .0000000E+00   .0000000E+00   .1528571E+00   .2000035E-06   .1000003E-06
   .0000000E+00   .0000000E+00   .1542857E+00   .2000014E-06   .1000001E-06
   .0000000E+00   .0000000E+00   .1557143E+00   .2000003E-06   .1000000E-06
   .0000000E+00   .0000000E+00   .1571429E+00   .2000001E-06   .1000000E-06
   .0000000E+00   .0000000E+00   .1585714E+00   .2000000E-06   .1000000E-06
   .0000000E+00   .0000000E+00   .1600000E+00   .2000000E-06   .1000000E-06
   .0000000E+00   .0000000E+00   .1614286E+00   .2000000E-06   .1000000E-06
   .0000000E+00   .0000000E+00   .1628571E+00   .2000000E-06   .1000000E-06
   .0000000E+00   .0000000E+00   .1642857E+00   .2000000E-06   .1000000E-06
   .0000000E+00   .0000000E+00   .1657143E+00   .2000000E-06   .1000000E-06
   .0000000E+00   .0000000E+00   .1671429E+00   .2000000E-06   .1000000E-06
   .0000000E+00   .0000000E+00   .1685714E+00   .2000000E-06   .1000000E-06
   .0000000E+00   .0000000E+00   .1700000E+00   .2000000E-06   .1000000E-06
   .0000000E+00   .0000000E+00   .1714286E+00   .2000000E-06   .1000000E-06
   .0000000E+00   .0000000E+00   .1728571E+00   .2000000E-06   .1000000E-06
   .0000000E+00   .0000000E+00   .1742857E+00   .2000000E-06   .1000000E-06
   .0000000E+00   .0000000E+00   .1757143E+00   .2000000E-06   .1000000E-06
   .0000000E+00   .0000000E+00   .1771429E+00   .2000000E-06   .1000000E-06
   .0000000E+00   .0000000E+00   .1785714E+00   .2000000E-06   .1000000E-06
   .0000000E+00   .0000000E+00   .1800000E+00   .2000000E-06   .1000000E-06
   .0000000E+00   .0000000E+00   .1814286E+00   .2000000E-06   .1000000E-06
   .0000000E+00   .0000000E+00   .1828571E+00   .2000000E-06   .1000000E-06
   .0000000E+00   .0000000E+00   .1842857E+00   .2000000E-06   .1000000E-06
   .0000000E+00   .0000000E+00   .1857143E+00   .2000000E-06   .1000000E-06
   .0000000E+00   .0000000E+00   .1871429E+00   .2000000E-06   .1000000E-06
   .0000000E+00   .0000000E+00   .1885714E+00   .2000000E-06   .1000000E-06
   .0000000E+00   .0000000E+00   .1900000E+00   .2000000E-06   .1000000E-06
   .0000000E+00   .0000000E+00   .1914286E+00   .2000000E-06   .1000000E-06
   .0000000E+00   .0000000E+00   .1928571E+00   .2000000E-06   .1000000E-06
   .0000000E+00   .0000000E+00   .1942857E+00   .2000000E-06   .1000000E-06
   .0000000E+00   .0000000E+00   .1957143E+00   .2000000E-06   .1000000E-06
   .0000000E+00   .0000000E+00   .1971429E+00   .2000000E-06   .1000000E-06
   .0000000E+00   .0000000E+00   .1985714E+00   .2000000E-06   .1000000E-06
   .0000000E+00   .0000000E+00   .2000000E+00   .2000000E-06   .1000000E-06
