title = "dataset transrc"
variables = "x", "y", "z", "K_xx", "K_yy", "K_zz"
zone t = "K - initial [m/s]", i =  141, j =    1, k =    1,  f=point
  0.0000000E+00  0.0000000E+00  0.0000000E+00  0.0000000E+00  0.0000000E+00  0.1160000E-04
  0.0000000E+00  0.0000000E+00  0.1428571E-02  0.0000000E+00  0.0000000E+00  0.1160000E-04
  0.0000000E+00  0.0000000E+00  0.2857143E-02  0.0000000E+00  0.0000000E+00  0.1160000E-04
  0.0000000E+00  0.0000000E+00  0.4285714E-02  0.0000000E+00  0.0000000E+00  0.1160000E-04
  0.0000000E+00  0.0000000E+00  0.5714286E-02  0.0000000E+00  0.0000000E+00  0.1160000E-04
  0.0000000E+00  0.0000000E+00  0.7142857E-02  0.0000000E+00  0.0000000E+00  0.1160000E-04
  0.0000000E+00  0.0000000E+00  0.8571429E-02  0.0000000E+00  0.0000000E+00  0.1160000E-04
  0.0000000E+00  0.0000000E+00  0.1000000E-01  0.0000000E+00  0.0000000E+00  0.1160000E-04
  0.0000000E+00  0.0000000E+00  0.1142857E-01  0.0000000E+00  0.0000000E+00  0.1160000E-04
  0.0000000E+00  0.0000000E+00  0.1285714E-01  0.0000000E+00  0.0000000E+00  0.1160000E-04
  0.0000000E+00  0.0000000E+00  0.1428571E-01  0.0000000E+00  0.0000000E+00  0.1160000E-04
  0.0000000E+00  0.0000000E+00  0.1571429E-01  0.0000000E+00  0.0000000E+00  0.1160000E-04
  0.0000000E+00  0.0000000E+00  0.1714286E-01  0.0000000E+00  0.0000000E+00  0.1160000E-04
  0.0000000E+00  0.0000000E+00  0.1857143E-01  0.0000000E+00  0.0000000E+00  0.1160000E-04
  0.0000000E+00  0.0000000E+00  0.2000000E-01  0.0000000E+00  0.0000000E+00  0.1160000E-04
  0.0000000E+00  0.0000000E+00  0.2142857E-01  0.0000000E+00  0.0000000E+00  0.1160000E-04
  0.0000000E+00  0.0000000E+00  0.2285714E-01  0.0000000E+00  0.0000000E+00  0.1160000E-04
  0.0000000E+00  0.0000000E+00  0.2428571E-01  0.0000000E+00  0.0000000E+00  0.1160000E-04
  0.0000000E+00  0.0000000E+00  0.2571429E-01  0.0000000E+00  0.0000000E+00  0.1160000E-04
  0.0000000E+00  0.0000000E+00  0.2714286E-01  0.0000000E+00  0.0000000E+00  0.1160000E-04
  0.0000000E+00  0.0000000E+00  0.2857143E-01  0.0000000E+00  0.0000000E+00  0.1160000E-04
  0.0000000E+00  0.0000000E+00  0.3000000E-01  0.0000000E+00  0.0000000E+00  0.1160000E-04
  0.0000000E+00  0.0000000E+00  0.3142857E-01  0.0000000E+00  0.0000000E+00  0.1160000E-04
  0.0000000E+00  0.0000000E+00  0.3285714E-01  0.0000000E+00  0.0000000E+00  0.1160000E-04
  0.0000000E+00  0.0000000E+00  0.3428571E-01  0.0000000E+00  0.0000000E+00  0.1160000E-04
  0.0000000E+00  0.0000000E+00  0.3571429E-01  0.0000000E+00  0.0000000E+00  0.1160000E-04
  0.0000000E+00  0.0000000E+00  0.3714286E-01  0.0000000E+00  0.0000000E+00  0.1160000E-04
  0.0000000E+00  0.0000000E+00  0.3857143E-01  0.0000000E+00  0.0000000E+00  0.1160000E-04
  0.0000000E+00  0.0000000E+00  0.4000000E-01  0.0000000E+00  0.0000000E+00  0.1160000E-04
  0.0000000E+00  0.0000000E+00  0.4142857E-01  0.0000000E+00  0.0000000E+00  0.1160000E-04
  0.0000000E+00  0.0000000E+00  0.4285714E-01  0.0000000E+00  0.0000000E+00  0.1160000E-04
  0.0000000E+00  0.0000000E+00  0.4428571E-01  0.0000000E+00  0.0000000E+00  0.1160000E-04
  0.0000000E+00  0.0000000E+00  0.4571429E-01  0.0000000E+00  0.0000000E+00  0.1160000E-04
  0.0000000E+00  0.0000000E+00  0.4714286E-01  0.0000000E+00  0.0000000E+00  0.1160000E-04
  0.0000000E+00  0.0000000E+00  0.4857143E-01  0.0000000E+00  0.0000000E+00  0.1160000E-04
  0.0000000E+00  0.0000000E+00  0.5000000E-01  0.0000000E+00  0.0000000E+00  0.1160000E-04
  0.0000000E+00  0.0000000E+00  0.5142857E-01  0.0000000E+00  0.0000000E+00  0.1160000E-04
  0.0000000E+00  0.0000000E+00  0.5285714E-01  0.0000000E+00  0.0000000E+00  0.1160000E-04
  0.0000000E+00  0.0000000E+00  0.5428571E-01  0.0000000E+00  0.0000000E+00  0.1160000E-04
  0.0000000E+00  0.0000000E+00  0.5571429E-01  0.0000000E+00  0.0000000E+00  0.1160000E-04
  0.0000000E+00  0.0000000E+00  0.5714286E-01  0.0000000E+00  0.0000000E+00  0.1160000E-04
  0.0000000E+00  0.0000000E+00  0.5857143E-01  0.0000000E+00  0.0000000E+00  0.1160000E-04
  0.0000000E+00  0.0000000E+00  0.6000000E-01  0.0000000E+00  0.0000000E+00  0.1160000E-04
  0.0000000E+00  0.0000000E+00  0.6142857E-01  0.0000000E+00  0.0000000E+00  0.1160000E-04
  0.0000000E+00  0.0000000E+00  0.6285714E-01  0.0000000E+00  0.0000000E+00  0.1160000E-04
  0.0000000E+00  0.0000000E+00  0.6428571E-01  0.0000000E+00  0.0000000E+00  0.1160000E-04
  0.0000000E+00  0.0000000E+00  0.6571429E-01  0.0000000E+00  0.0000000E+00  0.1160000E-04
  0.0000000E+00  0.0000000E+00  0.6714286E-01  0.0000000E+00  0.0000000E+00  0.1160000E-04
  0.0000000E+00  0.0000000E+00  0.6857143E-01  0.0000000E+00  0.0000000E+00  0.1160000E-04
  0.0000000E+00  0.0000000E+00  0.7000000E-01  0.0000000E+00  0.0000000E+00  0.1160000E-04
  0.0000000E+00  0.0000000E+00  0.7142857E-01  0.0000000E+00  0.0000000E+00  0.1160000E-04
  0.0000000E+00  0.0000000E+00  0.7285714E-01  0.0000000E+00  0.0000000E+00  0.1160000E-04
  0.0000000E+00  0.0000000E+00  0.7428571E-01  0.0000000E+00  0.0000000E+00  0.1160000E-04
  0.0000000E+00  0.0000000E+00  0.7571429E-01  0.0000000E+00  0.0000000E+00  0.1160000E-04
  0.0000000E+00  0.0000000E+00  0.7714286E-01  0.0000000E+00  0.0000000E+00  0.1160000E-04
  0.0000000E+00  0.0000000E+00  0.7857143E-01  0.0000000E+00  0.0000000E+00  0.1160000E-04
  0.0000000E+00  0.0000000E+00  0.8000000E-01  0.0000000E+00  0.0000000E+00  0.1160000E-04
  0.0000000E+00  0.0000000E+00  0.8142857E-01  0.0000000E+00  0.0000000E+00  0.1160000E-04
  0.0000000E+00  0.0000000E+00  0.8285714E-01  0.0000000E+00  0.0000000E+00  0.1160000E-04
  0.0000000E+00  0.0000000E+00  0.8428571E-01  0.0000000E+00  0.0000000E+00  0.1160000E-04
  0.0000000E+00  0.0000000E+00  0.8571429E-01  0.0000000E+00  0.0000000E+00  0.1160000E-04
  0.0000000E+00  0.0000000E+00  0.8714286E-01  0.0000000E+00  0.0000000E+00  0.1160000E-04
  0.0000000E+00  0.0000000E+00  0.8857143E-01  0.0000000E+00  0.0000000E+00  0.1160000E-04
  0.0000000E+00  0.0000000E+00  0.9000000E-01  0.0000000E+00  0.0000000E+00  0.1160000E-04
  0.0000000E+00  0.0000000E+00  0.9142857E-01  0.0000000E+00  0.0000000E+00  0.1160000E-04
  0.0000000E+00  0.0000000E+00  0.9285714E-01  0.0000000E+00  0.0000000E+00  0.1160000E-04
  0.0000000E+00  0.0000000E+00  0.9428571E-01  0.0000000E+00  0.0000000E+00  0.1160000E-04
  0.0000000E+00  0.0000000E+00  0.9571429E-01  0.0000000E+00  0.0000000E+00  0.1160000E-04
  0.0000000E+00  0.0000000E+00  0.9714286E-01  0.0000000E+00  0.0000000E+00  0.1160000E-04
  0.0000000E+00  0.0000000E+00  0.9857143E-01  0.0000000E+00  0.0000000E+00  0.1160000E-04
  0.0000000E+00  0.0000000E+00  0.1000000E+00  0.0000000E+00  0.0000000E+00  0.1160000E-04
  0.0000000E+00  0.0000000E+00  0.1014286E+00  0.0000000E+00  0.0000000E+00  0.1160000E-04
  0.0000000E+00  0.0000000E+00  0.1028571E+00  0.0000000E+00  0.0000000E+00  0.1160000E-04
  0.0000000E+00  0.0000000E+00  0.1042857E+00  0.0000000E+00  0.0000000E+00  0.1160000E-04
  0.0000000E+00  0.0000000E+00  0.1057143E+00  0.0000000E+00  0.0000000E+00  0.1160000E-04
  0.0000000E+00  0.0000000E+00  0.1071429E+00  0.0000000E+00  0.0000000E+00  0.1160000E-04
  0.0000000E+00  0.0000000E+00  0.1085714E+00  0.0000000E+00  0.0000000E+00  0.1160000E-04
  0.0000000E+00  0.0000000E+00  0.1100000E+00  0.0000000E+00  0.0000000E+00  0.1160000E-04
  0.0000000E+00  0.0000000E+00  0.1114286E+00  0.0000000E+00  0.0000000E+00  0.1160000E-04
  0.0000000E+00  0.0000000E+00  0.1128571E+00  0.0000000E+00  0.0000000E+00  0.1160000E-04
  0.0000000E+00  0.0000000E+00  0.1142857E+00  0.0000000E+00  0.0000000E+00  0.1160000E-04
  0.0000000E+00  0.0000000E+00  0.1157143E+00  0.0000000E+00  0.0000000E+00  0.1160000E-04
  0.0000000E+00  0.0000000E+00  0.1171429E+00  0.0000000E+00  0.0000000E+00  0.1160000E-04
  0.0000000E+00  0.0000000E+00  0.1185714E+00  0.0000000E+00  0.0000000E+00  0.1160000E-04
  0.0000000E+00  0.0000000E+00  0.1200000E+00  0.0000000E+00  0.0000000E+00  0.1160000E-04
  0.0000000E+00  0.0000000E+00  0.1214286E+00  0.0000000E+00  0.0000000E+00  0.1160000E-04
  0.0000000E+00  0.0000000E+00  0.1228571E+00  0.0000000E+00  0.0000000E+00  0.1160000E-04
  0.0000000E+00  0.0000000E+00  0.1242857E+00  0.0000000E+00  0.0000000E+00  0.1160000E-04
  0.0000000E+00  0.0000000E+00  0.1257143E+00  0.0000000E+00  0.0000000E+00  0.1160000E-04
  0.0000000E+00  0.0000000E+00  0.1271429E+00  0.0000000E+00  0.0000000E+00  0.1160000E-04
  0.0000000E+00  0.0000000E+00  0.1285714E+00  0.0000000E+00  0.0000000E+00  0.1160000E-04
  0.0000000E+00  0.0000000E+00  0.1300000E+00  0.0000000E+00  0.0000000E+00  0.1160000E-04
  0.0000000E+00  0.0000000E+00  0.1314286E+00  0.0000000E+00  0.0000000E+00  0.1160000E-04
  0.0000000E+00  0.0000000E+00  0.1328571E+00  0.0000000E+00  0.0000000E+00  0.1160000E-04
  0.0000000E+00  0.0000000E+00  0.1342857E+00  0.0000000E+00  0.0000000E+00  0.1160000E-04
  0.0000000E+00  0.0000000E+00  0.1357143E+00  0.0000000E+00  0.0000000E+00  0.1160000E-04
  0.0000000E+00  0.0000000E+00  0.1371429E+00  0.0000000E+00  0.0000000E+00  0.1160000E-04
  0.0000000E+00  0.0000000E+00  0.1385714E+00  0.0000000E+00  0.0000000E+00  0.1160000E-04
  0.0000000E+00  0.0000000E+00  0.1400000E+00  0.0000000E+00  0.0000000E+00  0.1160000E-04
  0.0000000E+00  0.0000000E+00  0.1414286E+00  0.0000000E+00  0.0000000E+00  0.1160000E-04
  0.0000000E+00  0.0000000E+00  0.1428571E+00  0.0000000E+00  0.0000000E+00  0.1160000E-04
  0.0000000E+00  0.0000000E+00  0.1442857E+00  0.0000000E+00  0.0000000E+00  0.1160000E-04
  0.0000000E+00  0.0000000E+00  0.1457143E+00  0.0000000E+00  0.0000000E+00  0.1160000E-04
  0.0000000E+00  0.0000000E+00  0.1471429E+00  0.0000000E+00  0.0000000E+00  0.1160000E-04
  0.0000000E+00  0.0000000E+00  0.1485714E+00  0.0000000E+00  0.0000000E+00  0.1160000E-04
  0.0000000E+00  0.0000000E+00  0.1500000E+00  0.0000000E+00  0.0000000E+00  0.1160000E-04
  0.0000000E+00  0.0000000E+00  0.1514286E+00  0.0000000E+00  0.0000000E+00  0.1160000E-04
  0.0000000E+00  0.0000000E+00  0.1528571E+00  0.0000000E+00  0.0000000E+00  0.1160000E-04
  0.0000000E+00  0.0000000E+00  0.1542857E+00  0.0000000E+00  0.0000000E+00  0.1160000E-04
  0.0000000E+00  0.0000000E+00  0.1557143E+00  0.0000000E+00  0.0000000E+00  0.1160000E-04
  0.0000000E+00  0.0000000E+00  0.1571429E+00  0.0000000E+00  0.0000000E+00  0.1160000E-04
  0.0000000E+00  0.0000000E+00  0.1585714E+00  0.0000000E+00  0.0000000E+00  0.1160000E-04
  0.0000000E+00  0.0000000E+00  0.1600000E+00  0.0000000E+00  0.0000000E+00  0.1160000E-04
  0.0000000E+00  0.0000000E+00  0.1614286E+00  0.0000000E+00  0.0000000E+00  0.1160000E-04
  0.0000000E+00  0.0000000E+00  0.1628571E+00  0.0000000E+00  0.0000000E+00  0.1160000E-04
  0.0000000E+00  0.0000000E+00  0.1642857E+00  0.0000000E+00  0.0000000E+00  0.1160000E-04
  0.0000000E+00  0.0000000E+00  0.1657143E+00  0.0000000E+00  0.0000000E+00  0.1160000E-04
  0.0000000E+00  0.0000000E+00  0.1671429E+00  0.0000000E+00  0.0000000E+00  0.1160000E-04
  0.0000000E+00  0.0000000E+00  0.1685714E+00  0.0000000E+00  0.0000000E+00  0.1160000E-04
  0.0000000E+00  0.0000000E+00  0.1700000E+00  0.0000000E+00  0.0000000E+00  0.1160000E-04
  0.0000000E+00  0.0000000E+00  0.1714286E+00  0.0000000E+00  0.0000000E+00  0.1160000E-04
  0.0000000E+00  0.0000000E+00  0.1728571E+00  0.0000000E+00  0.0000000E+00  0.1160000E-04
  0.0000000E+00  0.0000000E+00  0.1742857E+00  0.0000000E+00  0.0000000E+00  0.1160000E-04
  0.0000000E+00  0.0000000E+00  0.1757143E+00  0.0000000E+00  0.0000000E+00  0.1160000E-04
  0.0000000E+00  0.0000000E+00  0.1771429E+00  0.0000000E+00  0.0000000E+00  0.1160000E-04
  0.0000000E+00  0.0000000E+00  0.1785714E+00  0.0000000E+00  0.0000000E+00  0.1160000E-04
  0.0000000E+00  0.0000000E+00  0.1800000E+00  0.0000000E+00  0.0000000E+00  0.1160000E-04
  0.0000000E+00  0.0000000E+00  0.1814286E+00  0.0000000E+00  0.0000000E+00  0.1160000E-04
  0.0000000E+00  0.0000000E+00  0.1828571E+00  0.0000000E+00  0.0000000E+00  0.1160000E-04
  0.0000000E+00  0.0000000E+00  0.1842857E+00  0.0000000E+00  0.0000000E+00  0.1160000E-04
  0.0000000E+00  0.0000000E+00  0.1857143E+00  0.0000000E+00  0.0000000E+00  0.1160000E-04
  0.0000000E+00  0.0000000E+00  0.1871429E+00  0.0000000E+00  0.0000000E+00  0.1160000E-04
  0.0000000E+00  0.0000000E+00  0.1885714E+00  0.0000000E+00  0.0000000E+00  0.1160000E-04
  0.0000000E+00  0.0000000E+00  0.1900000E+00  0.0000000E+00  0.0000000E+00  0.1160000E-04
  0.0000000E+00  0.0000000E+00  0.1914286E+00  0.0000000E+00  0.0000000E+00  0.1160000E-04
  0.0000000E+00  0.0000000E+00  0.1928571E+00  0.0000000E+00  0.0000000E+00  0.1160000E-04
  0.0000000E+00  0.0000000E+00  0.1942857E+00  0.0000000E+00  0.0000000E+00  0.1160000E-04
  0.0000000E+00  0.0000000E+00  0.1957143E+00  0.0000000E+00  0.0000000E+00  0.1160000E-04
  0.0000000E+00  0.0000000E+00  0.1971429E+00  0.0000000E+00  0.0000000E+00  0.1160000E-04
  0.0000000E+00  0.0000000E+00  0.1985714E+00  0.0000000E+00  0.0000000E+00  0.1160000E-04
  0.0000000E+00  0.0000000E+00  0.2000000E+00  0.0000000E+00  0.0000000E+00  0.1160000E-04
