title = "dataset shlomot"
variables = "x", "y", "z", "h_w", "p_w", "s_w", "theta_a", "s_a", "theta_g"
zone t = "Flow variables, solution time =  4.000E+00 days        " i =  121, j =   25, k =    1,  f=point
  0.0000000E+00  0.0000000E+00  0.0000000E+00  0.0000000E+00  0.0000000E+00  0.1000000E+01  0.3480000E+00  0.0000000E+00  0.0000000E+00
  0.5000000E-01  0.0000000E+00  0.0000000E+00  0.7302237E-01  0.7302237E-01  0.1000000E+01  0.3480000E+00  0.0000000E+00  0.0000000E+00
  0.1000000E+00  0.0000000E+00  0.0000000E+00  0.1133395E+00  0.1133395E+00  0.1000000E+01  0.3480000E+00  0.0000000E+00  0.0000000E+00
  0.1500000E+00  0.0000000E+00  0.0000000E+00  0.1405365E+00  0.1405365E+00  0.1000000E+01  0.3480000E+00  0.0000000E+00  0.0000000E+00
  0.2000000E+00  0.0000000E+00  0.0000000E+00  0.1613996E+00  0.1613996E+00  0.1000000E+01  0.3480000E+00  0.0000000E+00  0.0000000E+00
  0.2500000E+00  0.0000000E+00  0.0000000E+00  0.1787319E+00  0.1787319E+00  0.1000000E+01  0.3480000E+00  0.0000000E+00  0.0000000E+00
  0.3000000E+00  0.0000000E+00  0.0000000E+00  0.1938766E+00  0.1938766E+00  0.1000000E+01  0.3480000E+00  0.0000000E+00  0.0000000E+00
  0.3500000E+00  0.0000000E+00  0.0000000E+00  0.2075536E+00  0.2075536E+00  0.1000000E+01  0.3480000E+00  0.0000000E+00  0.0000000E+00
  0.4000000E+00  0.0000000E+00  0.0000000E+00  0.2201817E+00  0.2201817E+00  0.1000000E+01  0.3480000E+00  0.0000000E+00  0.0000000E+00
  0.4500000E+00  0.0000000E+00  0.0000000E+00  0.2320192E+00  0.2320192E+00  0.1000000E+01  0.3480000E+00  0.0000000E+00  0.0000000E+00
  0.5000000E+00  0.0000000E+00  0.0000000E+00  0.2432333E+00  0.2432333E+00  0.1000000E+01  0.3480000E+00  0.0000000E+00  0.0000000E+00
  0.5500000E+00  0.0000000E+00  0.0000000E+00  0.2539366E+00  0.2539366E+00  0.1000000E+01  0.3480000E+00  0.0000000E+00  0.0000000E+00
  0.6000000E+00  0.0000000E+00  0.0000000E+00  0.2642075E+00  0.2642075E+00  0.1000000E+01  0.3480000E+00  0.0000000E+00  0.0000000E+00
  0.6500000E+00  0.0000000E+00  0.0000000E+00  0.2741027E+00  0.2741027E+00  0.1000000E+01  0.3480000E+00  0.0000000E+00  0.0000000E+00
  0.7000000E+00  0.0000000E+00  0.0000000E+00  0.2836642E+00  0.2836642E+00  0.1000000E+01  0.3480000E+00  0.0000000E+00  0.0000000E+00
  0.7500000E+00  0.0000000E+00  0.0000000E+00  0.2929244E+00  0.2929244E+00  0.1000000E+01  0.3480000E+00  0.0000000E+00  0.0000000E+00
  0.8000000E+00  0.0000000E+00  0.0000000E+00  0.3019085E+00  0.3019085E+00  0.1000000E+01  0.3480000E+00  0.0000000E+00  0.0000000E+00
  0.8500000E+00  0.0000000E+00  0.0000000E+00  0.3106373E+00  0.3106373E+00  0.1000000E+01  0.3480000E+00  0.0000000E+00  0.0000000E+00
  0.9000000E+00  0.0000000E+00  0.0000000E+00  0.3191275E+00  0.3191275E+00  0.1000000E+01  0.3480000E+00  0.0000000E+00  0.0000000E+00
  0.9500000E+00  0.0000000E+00  0.0000000E+00  0.3273937E+00  0.3273937E+00  0.1000000E+01  0.3480000E+00  0.0000000E+00  0.0000000E+00
  0.1000000E+01  0.0000000E+00  0.0000000E+00  0.3354482E+00  0.3354482E+00  0.1000000E+01  0.3480000E+00  0.0000000E+00  0.0000000E+00
  0.1050000E+01  0.0000000E+00  0.0000000E+00  0.3433017E+00  0.3433017E+00  0.1000000E+01  0.3480000E+00  0.0000000E+00  0.0000000E+00
  0.1100000E+01  0.0000000E+00  0.0000000E+00  0.3509639E+00  0.3509639E+00  0.1000000E+01  0.3480000E+00  0.0000000E+00  0.0000000E+00
  0.1150000E+01  0.0000000E+00  0.0000000E+00  0.3584432E+00  0.3584432E+00  0.1000000E+01  0.3480000E+00  0.0000000E+00  0.0000000E+00
  0.1200000E+01  0.0000000E+00  0.0000000E+00  0.3657474E+00  0.3657474E+00  0.1000000E+01  0.3480000E+00  0.0000000E+00  0.0000000E+00
  0.1250000E+01  0.0000000E+00  0.0000000E+00  0.3728835E+00  0.3728835E+00  0.1000000E+01  0.3480000E+00  0.0000000E+00  0.0000000E+00
  0.1300000E+01  0.0000000E+00  0.0000000E+00  0.3798580E+00  0.3798580E+00  0.1000000E+01  0.3480000E+00  0.0000000E+00  0.0000000E+00
  0.1350000E+01  0.0000000E+00  0.0000000E+00  0.3866767E+00  0.3866767E+00  0.1000000E+01  0.3480000E+00  0.0000000E+00  0.0000000E+00
  0.1400000E+01  0.0000000E+00  0.0000000E+00  0.3933451E+00  0.3933451E+00  0.1000000E+01  0.3480000E+00  0.0000000E+00  0.0000000E+00
  0.1450000E+01  0.0000000E+00  0.0000000E+00  0.3998683E+00  0.3998683E+00  0.1000000E+01  0.3480000E+00  0.0000000E+00  0.0000000E+00
  0.1500000E+01  0.0000000E+00  0.0000000E+00  0.4062510E+00  0.4062510E+00  0.1000000E+01  0.3480000E+00  0.0000000E+00  0.0000000E+00
  0.1550000E+01  0.0000000E+00  0.0000000E+00  0.4124976E+00  0.4124976E+00  0.1000000E+01  0.3480000E+00  0.0000000E+00  0.0000000E+00
  0.1600000E+01  0.0000000E+00  0.0000000E+00  0.4186123E+00  0.4186123E+00  0.1000000E+01  0.3480000E+00  0.0000000E+00  0.0000000E+00
  0.1650000E+01  0.0000000E+00  0.0000000E+00  0.4245990E+00  0.4245990E+00  0.1000000E+01  0.3480000E+00  0.0000000E+00  0.0000000E+00
  0.1700000E+01  0.0000000E+00  0.0000000E+00  0.4304612E+00  0.4304612E+00  0.1000000E+01  0.3480000E+00  0.0000000E+00  0.0000000E+00
  0.1750000E+01  0.0000000E+00  0.0000000E+00  0.4362025E+00  0.4362025E+00  0.1000000E+01  0.3480000E+00  0.0000000E+00  0.0000000E+00
  0.1800000E+01  0.0000000E+00  0.0000000E+00  0.4418260E+00  0.4418260E+00  0.1000000E+01  0.3480000E+00  0.0000000E+00  0.0000000E+00
  0.1850000E+01  0.0000000E+00  0.0000000E+00  0.4473349E+00  0.4473349E+00  0.1000000E+01  0.3480000E+00  0.0000000E+00  0.0000000E+00
  0.1900000E+01  0.0000000E+00  0.0000000E+00  0.4527320E+00  0.4527320E+00  0.1000000E+01  0.3480000E+00  0.0000000E+00  0.0000000E+00
  0.1950000E+01  0.0000000E+00  0.0000000E+00  0.4580200E+00  0.4580200E+00  0.1000000E+01  0.3480000E+00  0.0000000E+00  0.0000000E+00
  0.2000000E+01  0.0000000E+00  0.0000000E+00  0.4632016E+00  0.4632016E+00  0.1000000E+01  0.3480000E+00  0.0000000E+00  0.0000000E+00
  0.2050000E+01  0.0000000E+00  0.0000000E+00  0.4682793E+00  0.4682793E+00  0.1000000E+01  0.3480000E+00  0.0000000E+00  0.0000000E+00
  0.2100000E+01  0.0000000E+00  0.0000000E+00  0.4732553E+00  0.4732553E+00  0.1000000E+01  0.3480000E+00  0.0000000E+00  0.0000000E+00
  0.2150000E+01  0.0000000E+00  0.0000000E+00  0.4781320E+00  0.4781320E+00  0.1000000E+01  0.3480000E+00  0.0000000E+00  0.0000000E+00
  0.2200000E+01  0.0000000E+00  0.0000000E+00  0.4829114E+00  0.4829114E+00  0.1000000E+01  0.3480000E+00  0.0000000E+00  0.0000000E+00
  0.2250000E+01  0.0000000E+00  0.0000000E+00  0.4875956E+00  0.4875956E+00  0.1000000E+01  0.3480000E+00  0.0000000E+00  0.0000000E+00
  0.2300000E+01  0.0000000E+00  0.0000000E+00  0.4921864E+00  0.4921864E+00  0.1000000E+01  0.3480000E+00  0.0000000E+00  0.0000000E+00
  0.2350000E+01  0.0000000E+00  0.0000000E+00  0.4966859E+00  0.4966859E+00  0.1000000E+01  0.3480000E+00  0.0000000E+00  0.0000000E+00
  0.2400000E+01  0.0000000E+00  0.0000000E+00  0.5010956E+00  0.5010956E+00  0.1000000E+01  0.3480000E+00  0.0000000E+00  0.0000000E+00
  0.2450000E+01  0.0000000E+00  0.0000000E+00  0.5054173E+00  0.5054173E+00  0.1000000E+01  0.3480000E+00  0.0000000E+00  0.0000000E+00
  0.2500000E+01  0.0000000E+00  0.0000000E+00  0.5096525E+00  0.5096525E+00  0.1000000E+01  0.3480000E+00  0.0000000E+00  0.0000000E+00
  0.2550000E+01  0.0000000E+00  0.0000000E+00  0.5138030E+00  0.5138030E+00  0.1000000E+01  0.3480000E+00  0.0000000E+00  0.0000000E+00
  0.2600000E+01  0.0000000E+00  0.0000000E+00  0.5178700E+00  0.5178700E+00  0.1000000E+01  0.3480000E+00  0.0000000E+00  0.0000000E+00
  0.2650000E+01  0.0000000E+00  0.0000000E+00  0.5218550E+00  0.5218550E+00  0.1000000E+01  0.3480000E+00  0.0000000E+00  0.0000000E+00
  0.2700000E+01  0.0000000E+00  0.0000000E+00  0.5257595E+00  0.5257595E+00  0.1000000E+01  0.3480000E+00  0.0000000E+00  0.0000000E+00
  0.2750000E+01  0.0000000E+00  0.0000000E+00  0.5295846E+00  0.5295846E+00  0.1000000E+01  0.3480000E+00  0.0000000E+00  0.0000000E+00
  0.2800000E+01  0.0000000E+00  0.0000000E+00  0.5333316E+00  0.5333316E+00  0.1000000E+01  0.3480000E+00  0.0000000E+00  0.0000000E+00
  0.2850000E+01  0.0000000E+00  0.0000000E+00  0.5370017E+00  0.5370017E+00  0.1000000E+01  0.3480000E+00  0.0000000E+00  0.0000000E+00
  0.2900000E+01  0.0000000E+00  0.0000000E+00  0.5405961E+00  0.5405961E+00  0.1000000E+01  0.3480000E+00  0.0000000E+00  0.0000000E+00
  0.2950000E+01  0.0000000E+00  0.0000000E+00  0.5441158E+00  0.5441158E+00  0.1000000E+01  0.3480000E+00  0.0000000E+00  0.0000000E+00
  0.3000000E+01  0.0000000E+00  0.0000000E+00  0.5475620E+00  0.5475620E+00  0.1000000E+01  0.3480000E+00  0.0000000E+00  0.0000000E+00
  0.3050000E+01  0.0000000E+00  0.0000000E+00  0.5509356E+00  0.5509356E+00  0.1000000E+01  0.3480000E+00  0.0000000E+00  0.0000000E+00
  0.3100000E+01  0.0000000E+00  0.0000000E+00  0.5542376E+00  0.5542376E+00  0.1000000E+01  0.3480000E+00  0.0000000E+00  0.0000000E+00
  0.3150000E+01  0.0000000E+00  0.0000000E+00  0.5574690E+00  0.5574690E+00  0.1000000E+01  0.3480000E+00  0.0000000E+00  0.0000000E+00
  0.3200000E+01  0.0000000E+00  0.0000000E+00  0.5606307E+00  0.5606307E+00  0.1000000E+01  0.3480000E+00  0.0000000E+00  0.0000000E+00
  0.3250000E+01  0.0000000E+00  0.0000000E+00  0.5637235E+00  0.5637235E+00  0.1000000E+01  0.3480000E+00  0.0000000E+00  0.0000000E+00
  0.3300000E+01  0.0000000E+00  0.0000000E+00  0.5667483E+00  0.5667483E+00  0.1000000E+01  0.3480000E+00  0.0000000E+00  0.0000000E+00
  0.3350000E+01  0.0000000E+00  0.0000000E+00  0.5697058E+00  0.5697058E+00  0.1000000E+01  0.3480000E+00  0.0000000E+00  0.0000000E+00
  0.3400000E+01  0.0000000E+00  0.0000000E+00  0.5725969E+00  0.5725969E+00  0.1000000E+01  0.3480000E+00  0.0000000E+00  0.0000000E+00
  0.3450000E+01  0.0000000E+00  0.0000000E+00  0.5754224E+00  0.5754224E+00  0.1000000E+01  0.3480000E+00  0.0000000E+00  0.0000000E+00
  0.3500000E+01  0.0000000E+00  0.0000000E+00  0.5781829E+00  0.5781829E+00  0.1000000E+01  0.3480000E+00  0.0000000E+00  0.0000000E+00
  0.3550000E+01  0.0000000E+00  0.0000000E+00  0.5808791E+00  0.5808791E+00  0.1000000E+01  0.3480000E+00  0.0000000E+00  0.0000000E+00
  0.3600000E+01  0.0000000E+00  0.0000000E+00  0.5835117E+00  0.5835117E+00  0.1000000E+01  0.3480000E+00  0.0000000E+00  0.0000000E+00
  0.3650000E+01  0.0000000E+00  0.0000000E+00  0.5860814E+00  0.5860814E+00  0.1000000E+01  0.3480000E+00  0.0000000E+00  0.0000000E+00
  0.3700000E+01  0.0000000E+00  0.0000000E+00  0.5885887E+00  0.5885887E+00  0.1000000E+01  0.3480000E+00  0.0000000E+00  0.0000000E+00
  0.3750000E+01  0.0000000E+00  0.0000000E+00  0.5910343E+00  0.5910343E+00  0.1000000E+01  0.3480000E+00  0.0000000E+00  0.0000000E+00
  0.3800000E+01  0.0000000E+00  0.0000000E+00  0.5934187E+00  0.5934187E+00  0.1000000E+01  0.3480000E+00  0.0000000E+00  0.0000000E+00
  0.3850000E+01  0.0000000E+00  0.0000000E+00  0.5957426E+00  0.5957426E+00  0.1000000E+01  0.3480000E+00  0.0000000E+00  0.0000000E+00
  0.3900000E+01  0.0000000E+00  0.0000000E+00  0.5980064E+00  0.5980064E+00  0.1000000E+01  0.3480000E+00  0.0000000E+00  0.0000000E+00
  0.3950000E+01  0.0000000E+00  0.0000000E+00  0.6002106E+00  0.6002106E+00  0.1000000E+01  0.3480000E+00  0.0000000E+00  0.0000000E+00
  0.4000000E+01  0.0000000E+00  0.0000000E+00  0.6023558E+00  0.6023558E+00  0.1000000E+01  0.3480000E+00  0.0000000E+00  0.0000000E+00
  0.4050000E+01  0.0000000E+00  0.0000000E+00  0.6044424E+00  0.6044424E+00  0.1000000E+01  0.3480000E+00  0.0000000E+00  0.0000000E+00
  0.4100000E+01  0.0000000E+00  0.0000000E+00  0.6064709E+00  0.6064709E+00  0.1000000E+01  0.3480000E+00  0.0000000E+00  0.0000000E+00
  0.4150000E+01  0.0000000E+00  0.0000000E+00  0.6084418E+00  0.6084418E+00  0.1000000E+01  0.3480000E+00  0.0000000E+00  0.0000000E+00
  0.4200000E+01  0.0000000E+00  0.0000000E+00  0.6103554E+00  0.6103554E+00  0.1000000E+01  0.3480000E+00  0.0000000E+00  0.0000000E+00
  0.4250000E+01  0.0000000E+00  0.0000000E+00  0.6122121E+00  0.6122121E+00  0.1000000E+01  0.3480000E+00  0.0000000E+00  0.0000000E+00
  0.4300000E+01  0.0000000E+00  0.0000000E+00  0.6140125E+00  0.6140125E+00  0.1000000E+01  0.3480000E+00  0.0000000E+00  0.0000000E+00
  0.4350000E+01  0.0000000E+00  0.0000000E+00  0.6157567E+00  0.6157567E+00  0.1000000E+01  0.3480000E+00  0.0000000E+00  0.0000000E+00
  0.4400000E+01  0.0000000E+00  0.0000000E+00  0.6174453E+00  0.6174453E+00  0.1000000E+01  0.3480000E+00  0.0000000E+00  0.0000000E+00
  0.4450000E+01  0.0000000E+00  0.0000000E+00  0.6190786E+00  0.6190786E+00  0.1000000E+01  0.3480000E+00  0.0000000E+00  0.0000000E+00
  0.4500000E+01  0.0000000E+00  0.0000000E+00  0.6206568E+00  0.6206568E+00  0.1000000E+01  0.3480000E+00  0.0000000E+00  0.0000000E+00
  0.4550000E+01  0.0000000E+00  0.0000000E+00  0.6221804E+00  0.6221804E+00  0.1000000E+01  0.3480000E+00  0.0000000E+00  0.0000000E+00
  0.4600000E+01  0.0000000E+00  0.0000000E+00  0.6236496E+00  0.6236496E+00  0.1000000E+01  0.3480000E+00  0.0000000E+00  0.0000000E+00
  0.4650000E+01  0.0000000E+00  0.0000000E+00  0.6250647E+00  0.6250647E+00  0.1000000E+01  0.3480000E+00  0.0000000E+00  0.0000000E+00
  0.4700000E+01  0.0000000E+00  0.0000000E+00  0.6264260E+00  0.6264260E+00  0.1000000E+01  0.3480000E+00  0.0000000E+00  0.0000000E+00
  0.4750000E+01  0.0000000E+00  0.0000000E+00  0.6277338E+00  0.6277338E+00  0.1000000E+01  0.3480000E+00  0.0000000E+00  0.0000000E+00
  0.4800000E+01  0.0000000E+00  0.0000000E+00  0.6289883E+00  0.6289883E+00  0.1000000E+01  0.3480000E+00  0.0000000E+00  0.0000000E+00
  0.4850000E+01  0.0000000E+00  0.0000000E+00  0.6301898E+00  0.6301898E+00  0.1000000E+01  0.3480000E+00  0.0000000E+00  0.0000000E+00
  0.4900000E+01  0.0000000E+00  0.0000000E+00  0.6313386E+00  0.6313386E+00  0.1000000E+01  0.3480000E+00  0.0000000E+00  0.0000000E+00
  0.4950000E+01  0.0000000E+00  0.0000000E+00  0.6324347E+00  0.6324347E+00  0.1000000E+01  0.3480000E+00  0.0000000E+00  0.0000000E+00
  0.5000000E+01  0.0000000E+00  0.0000000E+00  0.6334785E+00  0.6334785E+00  0.1000000E+01  0.3480000E+00  0.0000000E+00  0.0000000E+00
  0.5050000E+01  0.0000000E+00  0.0000000E+00  0.6344702E+00  0.6344702E+00  0.1000000E+01  0.3480000E+00  0.0000000E+00  0.0000000E+00
  0.5100000E+01  0.0000000E+00  0.0000000E+00  0.6354099E+00  0.6354099E+00  0.1000000E+01  0.3480000E+00  0.0000000E+00  0.0000000E+00
  0.5150000E+01  0.0000000E+00  0.0000000E+00  0.6362978E+00  0.6362978E+00  0.1000000E+01  0.3480000E+00  0.0000000E+00  0.0000000E+00
  0.5200000E+01  0.0000000E+00  0.0000000E+00  0.6371340E+00  0.6371340E+00  0.1000000E+01  0.3480000E+00  0.0000000E+00  0.0000000E+00
  0.5250000E+01  0.0000000E+00  0.0000000E+00  0.6379189E+00  0.6379189E+00  0.1000000E+01  0.3480000E+00  0.0000000E+00  0.0000000E+00
  0.5300000E+01  0.0000000E+00  0.0000000E+00  0.6386524E+00  0.6386524E+00  0.1000000E+01  0.3480000E+00  0.0000000E+00  0.0000000E+00
  0.5350000E+01  0.0000000E+00  0.0000000E+00  0.6393347E+00  0.6393347E+00  0.1000000E+01  0.3480000E+00  0.0000000E+00  0.0000000E+00
  0.5400000E+01  0.0000000E+00  0.0000000E+00  0.6399660E+00  0.6399660E+00  0.1000000E+01  0.3480000E+00  0.0000000E+00  0.0000000E+00
  0.5450000E+01  0.0000000E+00  0.0000000E+00  0.6405463E+00  0.6405463E+00  0.1000000E+01  0.3480000E+00  0.0000000E+00  0.0000000E+00
  0.5500000E+01  0.0000000E+00  0.0000000E+00  0.6410759E+00  0.6410759E+00  0.1000000E+01  0.3480000E+00  0.0000000E+00  0.0000000E+00
  0.5550000E+01  0.0000000E+00  0.0000000E+00  0.6415547E+00  0.6415547E+00  0.1000000E+01  0.3480000E+00  0.0000000E+00  0.0000000E+00
  0.5600000E+01  0.0000000E+00  0.0000000E+00  0.6419829E+00  0.6419829E+00  0.1000000E+01  0.3480000E+00  0.0000000E+00  0.0000000E+00
  0.5650000E+01  0.0000000E+00  0.0000000E+00  0.6423605E+00  0.6423605E+00  0.1000000E+01  0.3480000E+00  0.0000000E+00  0.0000000E+00
  0.5700000E+01  0.0000000E+00  0.0000000E+00  0.6426876E+00  0.6426876E+00  0.1000000E+01  0.3480000E+00  0.0000000E+00  0.0000000E+00
  0.5750000E+01  0.0000000E+00  0.0000000E+00  0.6429643E+00  0.6429643E+00  0.1000000E+01  0.3480000E+00  0.0000000E+00  0.0000000E+00
  0.5800000E+01  0.0000000E+00  0.0000000E+00  0.6431906E+00  0.6431906E+00  0.1000000E+01  0.3480000E+00  0.0000000E+00  0.0000000E+00
  0.5850000E+01  0.0000000E+00  0.0000000E+00  0.6433666E+00  0.6433666E+00  0.1000000E+01  0.3480000E+00  0.0000000E+00  0.0000000E+00
  0.5900000E+01  0.0000000E+00  0.0000000E+00  0.6434923E+00  0.6434923E+00  0.1000000E+01  0.3480000E+00  0.0000000E+00  0.0000000E+00
  0.5950000E+01  0.0000000E+00  0.0000000E+00  0.6435677E+00  0.6435677E+00  0.1000000E+01  0.3480000E+00  0.0000000E+00  0.0000000E+00
  0.6000000E+01  0.0000000E+00  0.0000000E+00  0.6435928E+00  0.6435928E+00  0.1000000E+01  0.3480000E+00  0.0000000E+00  0.0000000E+00
  0.0000000E+00  0.0000000E+00  0.5000000E-01  0.5000000E-01  0.0000000E+00  0.1000000E+01  0.3480000E+00  0.0000000E+00  0.0000000E+00
  0.5000000E-01  0.0000000E+00  0.5000000E-01  0.8937499E-01  0.3937499E-01  0.1000000E+01  0.3480000E+00  0.0000000E+00  0.0000000E+00
  0.1000000E+00  0.0000000E+00  0.5000000E-01  0.1198996E+00  0.6989956E-01  0.1000000E+01  0.3480000E+00  0.0000000E+00  0.0000000E+00
  0.1500000E+00  0.0000000E+00  0.5000000E-01  0.1437034E+00  0.9370336E-01  0.1000000E+01  0.3480000E+00  0.0000000E+00  0.0000000E+00
  0.2000000E+00  0.0000000E+00  0.5000000E-01  0.1631651E+00  0.1131651E+00  0.1000000E+01  0.3480000E+00  0.0000000E+00  0.0000000E+00
  0.2500000E+00  0.0000000E+00  0.5000000E-01  0.1798257E+00  0.1298257E+00  0.1000000E+01  0.3480000E+00  0.0000000E+00  0.0000000E+00
  0.3000000E+00  0.0000000E+00  0.5000000E-01  0.1946103E+00  0.1446103E+00  0.1000000E+01  0.3480000E+00  0.0000000E+00  0.0000000E+00
  0.3500000E+00  0.0000000E+00  0.5000000E-01  0.2080781E+00  0.1580781E+00  0.1000000E+01  0.3480000E+00  0.0000000E+00  0.0000000E+00
  0.4000000E+00  0.0000000E+00  0.5000000E-01  0.2205770E+00  0.1705770E+00  0.1000000E+01  0.3480000E+00  0.0000000E+00  0.0000000E+00
  0.4500000E+00  0.0000000E+00  0.5000000E-01  0.2323309E+00  0.1823309E+00  0.1000000E+01  0.3480000E+00  0.0000000E+00  0.0000000E+00
  0.5000000E+00  0.0000000E+00  0.5000000E-01  0.2434887E+00  0.1934887E+00  0.1000000E+01  0.3480000E+00  0.0000000E+00  0.0000000E+00
  0.5500000E+00  0.0000000E+00  0.5000000E-01  0.2541527E+00  0.2041527E+00  0.1000000E+01  0.3480000E+00  0.0000000E+00  0.0000000E+00
  0.6000000E+00  0.0000000E+00  0.5000000E-01  0.2643954E+00  0.2143954E+00  0.1000000E+01  0.3480000E+00  0.0000000E+00  0.0000000E+00
  0.6500000E+00  0.0000000E+00  0.5000000E-01  0.2742695E+00  0.2242695E+00  0.1000000E+01  0.3480000E+00  0.0000000E+00  0.0000000E+00
  0.7000000E+00  0.0000000E+00  0.5000000E-01  0.2838149E+00  0.2338149E+00  0.1000000E+01  0.3480000E+00  0.0000000E+00  0.0000000E+00
  0.7500000E+00  0.0000000E+00  0.5000000E-01  0.2930624E+00  0.2430624E+00  0.1000000E+01  0.3480000E+00  0.0000000E+00  0.0000000E+00
  0.8000000E+00  0.0000000E+00  0.5000000E-01  0.3020363E+00  0.2520363E+00  0.1000000E+01  0.3480000E+00  0.0000000E+00  0.0000000E+00
  0.8500000E+00  0.0000000E+00  0.5000000E-01  0.3107565E+00  0.2607565E+00  0.1000000E+01  0.3480000E+00  0.0000000E+00  0.0000000E+00
  0.9000000E+00  0.0000000E+00  0.5000000E-01  0.3192396E+00  0.2692396E+00  0.1000000E+01  0.3480000E+00  0.0000000E+00  0.0000000E+00
  0.9500000E+00  0.0000000E+00  0.5000000E-01  0.3274996E+00  0.2774996E+00  0.1000000E+01  0.3480000E+00  0.0000000E+00  0.0000000E+00
  0.1000000E+01  0.0000000E+00  0.5000000E-01  0.3355486E+00  0.2855486E+00  0.1000000E+01  0.3480000E+00  0.0000000E+00  0.0000000E+00
  0.1050000E+01  0.0000000E+00  0.5000000E-01  0.3433974E+00  0.2933974E+00  0.1000000E+01  0.3480000E+00  0.0000000E+00  0.0000000E+00
  0.1100000E+01  0.0000000E+00  0.5000000E-01  0.3510553E+00  0.3010553E+00  0.1000000E+01  0.3480000E+00  0.0000000E+00  0.0000000E+00
  0.1150000E+01  0.0000000E+00  0.5000000E-01  0.3585308E+00  0.3085308E+00  0.1000000E+01  0.3480000E+00  0.0000000E+00  0.0000000E+00
  0.1200000E+01  0.0000000E+00  0.5000000E-01  0.3658315E+00  0.3158315E+00  0.1000000E+01  0.3480000E+00  0.0000000E+00  0.0000000E+00
  0.1250000E+01  0.0000000E+00  0.5000000E-01  0.3729644E+00  0.3229644E+00  0.1000000E+01  0.3480000E+00  0.0000000E+00  0.0000000E+00
  0.1300000E+01  0.0000000E+00  0.5000000E-01  0.3799359E+00  0.3299359E+00  0.1000000E+01  0.3480000E+00  0.0000000E+00  0.0000000E+00
  0.1350000E+01  0.0000000E+00  0.5000000E-01  0.3867518E+00  0.3367518E+00  0.1000000E+01  0.3480000E+00  0.0000000E+00  0.0000000E+00
  0.1400000E+01  0.0000000E+00  0.5000000E-01  0.3934177E+00  0.3434177E+00  0.1000000E+01  0.3480000E+00  0.0000000E+00  0.0000000E+00
  0.1450000E+01  0.0000000E+00  0.5000000E-01  0.3999385E+00  0.3499385E+00  0.1000000E+01  0.3480000E+00  0.0000000E+00  0.0000000E+00
  0.1500000E+01  0.0000000E+00  0.5000000E-01  0.4063190E+00  0.3563190E+00  0.1000000E+01  0.3480000E+00  0.0000000E+00  0.0000000E+00
  0.1550000E+01  0.0000000E+00  0.5000000E-01  0.4125636E+00  0.3625636E+00  0.1000000E+01  0.3480000E+00  0.0000000E+00  0.0000000E+00
  0.1600000E+01  0.0000000E+00  0.5000000E-01  0.4186763E+00  0.3686763E+00  0.1000000E+01  0.3480000E+00  0.0000000E+00  0.0000000E+00
  0.1650000E+01  0.0000000E+00  0.5000000E-01  0.4246612E+00  0.3746612E+00  0.1000000E+01  0.3480000E+00  0.0000000E+00  0.0000000E+00
  0.1700000E+01  0.0000000E+00  0.5000000E-01  0.4305217E+00  0.3805217E+00  0.1000000E+01  0.3480000E+00  0.0000000E+00  0.0000000E+00
  0.1750000E+01  0.0000000E+00  0.5000000E-01  0.4362614E+00  0.3862614E+00  0.1000000E+01  0.3480000E+00  0.0000000E+00  0.0000000E+00
  0.1800000E+01  0.0000000E+00  0.5000000E-01  0.4418834E+00  0.3918834E+00  0.1000000E+01  0.3480000E+00  0.0000000E+00  0.0000000E+00
  0.1850000E+01  0.0000000E+00  0.5000000E-01  0.4473908E+00  0.3973908E+00  0.1000000E+01  0.3480000E+00  0.0000000E+00  0.0000000E+00
  0.1900000E+01  0.0000000E+00  0.5000000E-01  0.4527865E+00  0.4027865E+00  0.1000000E+01  0.3480000E+00  0.0000000E+00  0.0000000E+00
  0.1950000E+01  0.0000000E+00  0.5000000E-01  0.4580732E+00  0.4080732E+00  0.1000000E+01  0.3480000E+00  0.0000000E+00  0.0000000E+00
  0.2000000E+01  0.0000000E+00  0.5000000E-01  0.4632536E+00  0.4132536E+00  0.1000000E+01  0.3480000E+00  0.0000000E+00  0.0000000E+00
  0.2050000E+01  0.0000000E+00  0.5000000E-01  0.4683301E+00  0.4183301E+00  0.1000000E+01  0.3480000E+00  0.0000000E+00  0.0000000E+00
  0.2100000E+01  0.0000000E+00  0.5000000E-01  0.4733050E+00  0.4233050E+00  0.1000000E+01  0.3480000E+00  0.0000000E+00  0.0000000E+00
  0.2150000E+01  0.0000000E+00  0.5000000E-01  0.4781806E+00  0.4281806E+00  0.1000000E+01  0.3480000E+00  0.0000000E+00  0.0000000E+00
  0.2200000E+01  0.0000000E+00  0.5000000E-01  0.4829590E+00  0.4329590E+00  0.1000000E+01  0.3480000E+00  0.0000000E+00  0.0000000E+00
  0.2250000E+01  0.0000000E+00  0.5000000E-01  0.4876422E+00  0.4376422E+00  0.1000000E+01  0.3480000E+00  0.0000000E+00  0.0000000E+00
  0.2300000E+01  0.0000000E+00  0.5000000E-01  0.4922322E+00  0.4422322E+00  0.1000000E+01  0.3480000E+00  0.0000000E+00  0.0000000E+00
  0.2350000E+01  0.0000000E+00  0.5000000E-01  0.4967307E+00  0.4467307E+00  0.1000000E+01  0.3480000E+00  0.0000000E+00  0.0000000E+00
  0.2400000E+01  0.0000000E+00  0.5000000E-01  0.5011396E+00  0.4511396E+00  0.1000000E+01  0.3480000E+00  0.0000000E+00  0.0000000E+00
  0.2450000E+01  0.0000000E+00  0.5000000E-01  0.5054605E+00  0.4554605E+00  0.1000000E+01  0.3480000E+00  0.0000000E+00  0.0000000E+00
  0.2500000E+01  0.0000000E+00  0.5000000E-01  0.5096950E+00  0.4596950E+00  0.1000000E+01  0.3480000E+00  0.0000000E+00  0.0000000E+00
  0.2550000E+01  0.0000000E+00  0.5000000E-01  0.5138447E+00  0.4638447E+00  0.1000000E+01  0.3480000E+00  0.0000000E+00  0.0000000E+00
  0.2600000E+01  0.0000000E+00  0.5000000E-01  0.5179110E+00  0.4679110E+00  0.1000000E+01  0.3480000E+00  0.0000000E+00  0.0000000E+00
  0.2650000E+01  0.0000000E+00  0.5000000E-01  0.5218954E+00  0.4718954E+00  0.1000000E+01  0.3480000E+00  0.0000000E+00  0.0000000E+00
  0.2700000E+01  0.0000000E+00  0.5000000E-01  0.5257991E+00  0.4757991E+00  0.1000000E+01  0.3480000E+00  0.0000000E+00  0.0000000E+00
  0.2750000E+01  0.0000000E+00  0.5000000E-01  0.5296236E+00  0.4796236E+00  0.1000000E+01  0.3480000E+00  0.0000000E+00  0.0000000E+00
  0.2800000E+01  0.0000000E+00  0.5000000E-01  0.5333700E+00  0.4833700E+00  0.1000000E+01  0.3480000E+00  0.0000000E+00  0.0000000E+00
  0.2850000E+01  0.0000000E+00  0.5000000E-01  0.5370396E+00  0.4870396E+00  0.1000000E+01  0.3480000E+00  0.0000000E+00  0.0000000E+00
  0.2900000E+01  0.0000000E+00  0.5000000E-01  0.5406334E+00  0.4906334E+00  0.1000000E+01  0.3480000E+00  0.0000000E+00  0.0000000E+00
  0.2950000E+01  0.0000000E+00  0.5000000E-01  0.5441526E+00  0.4941526E+00  0.1000000E+01  0.3480000E+00  0.0000000E+00  0.0000000E+00
  0.3000000E+01  0.0000000E+00  0.5000000E-01  0.5475983E+00  0.4975983E+00  0.1000000E+01  0.3480000E+00  0.0000000E+00  0.0000000E+00
  0.3050000E+01  0.0000000E+00  0.5000000E-01  0.5509714E+00  0.5009714E+00  0.1000000E+01  0.3480000E+00  0.0000000E+00  0.0000000E+00
  0.3100000E+01  0.0000000E+00  0.5000000E-01  0.5542730E+00  0.5042730E+00  0.1000000E+01  0.3480000E+00  0.0000000E+00  0.0000000E+00
  0.3150000E+01  0.0000000E+00  0.5000000E-01  0.5575039E+00  0.5075039E+00  0.1000000E+01  0.3480000E+00  0.0000000E+00  0.0000000E+00
  0.3200000E+01  0.0000000E+00  0.5000000E-01  0.5606651E+00  0.5106651E+00  0.1000000E+01  0.3480000E+00  0.0000000E+00  0.0000000E+00
  0.3250000E+01  0.0000000E+00  0.5000000E-01  0.5637575E+00  0.5137575E+00  0.1000000E+01  0.3480000E+00  0.0000000E+00  0.0000000E+00
  0.3300000E+01  0.0000000E+00  0.5000000E-01  0.5667819E+00  0.5167819E+00  0.1000000E+01  0.3480000E+00  0.0000000E+00  0.0000000E+00
  0.3350000E+01  0.0000000E+00  0.5000000E-01  0.5697390E+00  0.5197390E+00  0.1000000E+01  0.3480000E+00  0.0000000E+00  0.0000000E+00
  0.3400000E+01  0.0000000E+00  0.5000000E-01  0.5726298E+00  0.5226298E+00  0.1000000E+01  0.3480000E+00  0.0000000E+00  0.0000000E+00
  0.3450000E+01  0.0000000E+00  0.5000000E-01  0.5754549E+00  0.5254549E+00  0.1000000E+01  0.3480000E+00  0.0000000E+00  0.0000000E+00
  0.3500000E+01  0.0000000E+00  0.5000000E-01  0.5782150E+00  0.5282150E+00  0.1000000E+01  0.3480000E+00  0.0000000E+00  0.0000000E+00
  0.3550000E+01  0.0000000E+00  0.5000000E-01  0.5809109E+00  0.5309109E+00  0.1000000E+01  0.3480000E+00  0.0000000E+00  0.0000000E+00
  0.3600000E+01  0.0000000E+00  0.5000000E-01  0.5835432E+00  0.5335432E+00  0.1000000E+01  0.3480000E+00  0.0000000E+00  0.0000000E+00
  0.3650000E+01  0.0000000E+00  0.5000000E-01  0.5861125E+00  0.5361125E+00  0.1000000E+01  0.3480000E+00  0.0000000E+00  0.0000000E+00
  0.3700000E+01  0.0000000E+00  0.5000000E-01  0.5886196E+00  0.5386196E+00  0.1000000E+01  0.3480000E+00  0.0000000E+00  0.0000000E+00
  0.3750000E+01  0.0000000E+00  0.5000000E-01  0.5910649E+00  0.5410649E+00  0.1000000E+01  0.3480000E+00  0.0000000E+00  0.0000000E+00
  0.3800000E+01  0.0000000E+00  0.5000000E-01  0.5934490E+00  0.5434490E+00  0.1000000E+01  0.3480000E+00  0.0000000E+00  0.0000000E+00
  0.3850000E+01  0.0000000E+00  0.5000000E-01  0.5957726E+00  0.5457726E+00  0.1000000E+01  0.3480000E+00  0.0000000E+00  0.0000000E+00
  0.3900000E+01  0.0000000E+00  0.5000000E-01  0.5980361E+00  0.5480361E+00  0.1000000E+01  0.3480000E+00  0.0000000E+00  0.0000000E+00
  0.3950000E+01  0.0000000E+00  0.5000000E-01  0.6002401E+00  0.5502401E+00  0.1000000E+01  0.3480000E+00  0.0000000E+00  0.0000000E+00
  0.4000000E+01  0.0000000E+00  0.5000000E-01  0.6023851E+00  0.5523851E+00  0.1000000E+01  0.3480000E+00  0.0000000E+00  0.0000000E+00
  0.4050000E+01  0.0000000E+00  0.5000000E-01  0.6044715E+00  0.5544715E+00  0.1000000E+01  0.3480000E+00  0.0000000E+00  0.0000000E+00
  0.4100000E+01  0.0000000E+00  0.5000000E-01  0.6064997E+00  0.5564997E+00  0.1000000E+01  0.3480000E+00  0.0000000E+00  0.0000000E+00
  0.4150000E+01  0.0000000E+00  0.5000000E-01  0.6084704E+00  0.5584704E+00  0.1000000E+01  0.3480000E+00  0.0000000E+00  0.0000000E+00
  0.4200000E+01  0.0000000E+00  0.5000000E-01  0.6103838E+00  0.5603838E+00  0.1000000E+01  0.3480000E+00  0.0000000E+00  0.0000000E+00
  0.4250000E+01  0.0000000E+00  0.5000000E-01  0.6122403E+00  0.5622403E+00  0.1000000E+01  0.3480000E+00  0.0000000E+00  0.0000000E+00
  0.4300000E+01  0.0000000E+00  0.5000000E-01  0.6140405E+00  0.5640405E+00  0.1000000E+01  0.3480000E+00  0.0000000E+00  0.0000000E+00
  0.4350000E+01  0.0000000E+00  0.5000000E-01  0.6157846E+00  0.5657846E+00  0.1000000E+01  0.3480000E+00  0.0000000E+00  0.0000000E+00
  0.4400000E+01  0.0000000E+00  0.5000000E-01  0.6174730E+00  0.5674730E+00  0.1000000E+01  0.3480000E+00  0.0000000E+00  0.0000000E+00
  0.4450000E+01  0.0000000E+00  0.5000000E-01  0.6191061E+00  0.5691061E+00  0.1000000E+01  0.3480000E+00  0.0000000E+00  0.0000000E+00
  0.4500000E+01  0.0000000E+00  0.5000000E-01  0.6206842E+00  0.5706842E+00  0.1000000E+01  0.3480000E+00  0.0000000E+00  0.0000000E+00
  0.4550000E+01  0.0000000E+00  0.5000000E-01  0.6222076E+00  0.5722076E+00  0.1000000E+01  0.3480000E+00  0.0000000E+00  0.0000000E+00
  0.4600000E+01  0.0000000E+00  0.5000000E-01  0.6236766E+00  0.5736766E+00  0.1000000E+01  0.3480000E+00  0.0000000E+00  0.0000000E+00
  0.4650000E+01  0.0000000E+00  0.5000000E-01  0.6250916E+00  0.5750916E+00  0.1000000E+01  0.3480000E+00  0.0000000E+00  0.0000000E+00
  0.4700000E+01  0.0000000E+00  0.5000000E-01  0.6264528E+00  0.5764528E+00  0.1000000E+01  0.3480000E+00  0.0000000E+00  0.0000000E+00
  0.4750000E+01  0.0000000E+00  0.5000000E-01  0.6277604E+00  0.5777604E+00  0.1000000E+01  0.3480000E+00  0.0000000E+00  0.0000000E+00