title = "dataset phsweep"
variables = "pH","calcite","aragonite","lime"
zone t = "SI, pH-sweep from 0-14", f=point
  0.0000000E+00 -0.1671117E+02 -0.1682617E+02 -0.3633276E+02
  0.2800000E+00 -0.1612369E+02 -0.1623869E+02 -0.3574055E+02
  0.5600000E+00 -0.1550627E+02 -0.1562127E+02 -0.3512058E+02
  0.8400000E+00 -0.1487752E+02 -0.1499252E+02 -0.3449055E+02
  0.1120000E+01 -0.1424916E+02 -0.1436416E+02 -0.3386153E+02
  0.1400000E+01 -0.1362820E+02 -0.1374320E+02 -0.3324024E+02
  0.1680000E+01 -0.1301814E+02 -0.1313314E+02 -0.3263001E+02
  0.1960000E+01 -0.1241989E+02 -0.1253489E+02 -0.3203167E+02
  0.2240000E+01 -0.1183264E+02 -0.1194764E+02 -0.3144438E+02
  0.2520000E+01 -0.1125458E+02 -0.1136958E+02 -0.3086630E+02
  0.2800000E+01 -0.1068339E+02 -0.1079839E+02 -0.3029510E+02
  0.3080000E+01 -0.1011686E+02 -0.1023186E+02 -0.2972856E+02
  0.3360000E+01 -0.9553200E+01 -0.9668200E+01 -0.2916490E+02
  0.3640000E+01 -0.8991210E+01 -0.9106210E+01 -0.2860291E+02
  0.3920000E+01 -0.8430145E+01 -0.8545145E+01 -0.2804184E+02
  0.4200000E+01 -0.7869580E+01 -0.7984580E+01 -0.2748127E+02
  0.4480000E+01 -0.7309282E+01 -0.7424282E+01 -0.2692098E+02
  0.4760000E+01 -0.6749126E+01 -0.6864126E+01 -0.2636082E+02
  0.5040000E+01 -0.6189046E+01 -0.6304046E+01 -0.2580074E+02
  0.5320000E+01 -0.5629007E+01 -0.5744007E+01 -0.2524070E+02
  0.5600000E+01 -0.5068993E+01 -0.5183993E+01 -0.2468069E+02
  0.5880000E+01 -0.4508998E+01 -0.4623998E+01 -0.2412069E+02
  0.6160000E+01 -0.3949024E+01 -0.4064024E+01 -0.2356072E+02
  0.6440000E+01 -0.3389083E+01 -0.3504083E+01 -0.2300078E+02
  0.6720000E+01 -0.2829198E+01 -0.2944198E+01 -0.2244089E+02
  0.7000000E+01 -0.2269420E+01 -0.2384420E+01 -0.2188111E+02
  0.7280000E+01 -0.1709844E+01 -0.1824844E+01 -0.2132154E+02
  0.7560000E+01 -0.1150649E+01 -0.1265649E+01 -0.2076234E+02
  0.7840000E+01 -0.5921746E+00 -0.7071746E+00 -0.2020387E+02
  0.8120000E+01 -0.3504923E-01 -0.1500492E+00 -0.1964675E+02
  0.8400000E+01  0.5195791E+00  0.4045791E+00 -0.1909212E+02
  0.8680000E+01  0.1069667E+01  0.9546667E+00 -0.1854205E+02
  0.8960000E+01  0.1611668E+01  0.1496668E+01 -0.1800006E+02
  0.9240000E+01  0.2139559E+01  0.2024559E+01 -0.1747221E+02
  0.9520000E+01  0.2643512E+01  0.2528512E+01 -0.1696833E+02
  0.9800000E+01  0.3110137E+01  0.2995137E+01 -0.1650191E+02
  0.1008000E+02  0.3536051E+01  0.3421051E+01 -0.1607666E+02
  0.1036000E+02  0.4010874E+01  0.3895874E+01 -0.1560480E+02
  0.1064000E+02  0.4577121E+01  0.4462121E+01 -0.1505407E+02
  0.1092000E+02  0.5137121E+01  0.5022121E+01 -0.1454529E+02
  0.1120000E+02  0.5697121E+01  0.5582121E+01 -0.1421560E+02
  0.1148000E+02  0.6257121E+01  0.6142121E+01 -0.1365560E+02
  0.1176000E+02  0.6817121E+01  0.6702121E+01 -0.1309560E+02
  0.1204000E+02  0.7377121E+01  0.7262121E+01 -0.1253560E+02
  0.1232000E+02  0.7937121E+01  0.7822121E+01 -0.1197560E+02
  0.1260000E+02  0.8497121E+01  0.8382121E+01 -0.1141560E+02
  0.1288000E+02  0.9057121E+01  0.8942121E+01 -0.1085560E+02
  0.1316000E+02  0.9617121E+01  0.9502121E+01 -0.1029560E+02
  0.1344000E+02  0.1017712E+02  0.1006212E+02 -0.9735596E+01
  0.1372000E+02  0.1073712E+02  0.1062212E+02 -0.9175596E+01
  0.1400000E+02  0.1129712E+02  0.1118212E+02 -0.8615596E+01
