title = "dataset raoult"
variables = "time","pce(r)_1","mtbe(r)_1","pentan(r)_1","iso-oktan(r)_1","toluol(r)_1","1,3,5-tmb(r)_1"
zone t = "Diss.-prec. rates, volume =    35", f=point
  0.0000000E+00 -0.2178832E+02 -0.5722401E+01 -0.6105241E+01 -0.1747802E+00 -0.1329129E+03 -0.7153241E+01
  0.1000000E-06 -0.2090582E+02 -0.5721553E+01 -0.6099551E+01 -0.1742976E+00 -0.1237953E+03 -0.6712179E+01
  0.2000000E-06 -0.2005942E+02 -0.5720713E+01 -0.6093877E+01 -0.1738169E+00 -0.1153053E+03 -0.6298453E+01
  0.3558387E-06 -0.1882253E+02 -0.5719400E+01 -0.6085050E+01 -0.1730714E+00 -0.1034422E+03 -0.5713873E+01
  0.5830108E-06 -0.1717864E+02 -0.5717486E+01 -0.6072224E+01 -0.1719927E+00 -0.8863674E+02 -0.4972889E+01
  0.9141681E-06 -0.1507866E+02 -0.5714695E+01 -0.6053614E+01 -0.1704372E+00 -0.7130067E+02 -0.4086585E+01
  0.1396909E-05 -0.1253977E+02 -0.5710626E+01 -0.6026669E+01 -0.1682049E+00 -0.5267859E+02 -0.3106937E+01
  0.2100618E-05 -0.9692598E+01 -0.5704696E+01 -0.5987779E+01 -0.1650242E+00 -0.3482528E+02 -0.2131999E+01
  0.3126442E-05 -0.6804661E+01 -0.5696061E+01 -0.5931907E+01 -0.1605385E+00 -0.2002761E+02 -0.1284786E+01
  0.4536302E-05 -0.4325177E+01 -0.5684216E+01 -0.5856640E+01 -0.1546460E+00 -0.1007171E+02 -0.6818182E+00
  0.6591508E-05 -0.2398099E+01 -0.5667012E+01 -0.5750066E+01 -0.1465985E+00 -0.4312174E+01 -0.3089060E+00
  0.9587461E-05 -0.1163710E+01 -0.5642080E+01 -0.5601118E+01 -0.1359155E+00 -0.1700077E+01 -0.1263072E+00
  0.1349370E-04 -0.5588719E+00 -0.5609825E+01 -0.5417191E+01 -0.1235639E+00 -0.8223133E+00 -0.5965787E-01
  0.1886232E-04 -0.3047112E+00 -0.5565992E+01 -0.5182370E+01 -0.1091161E+00 -0.5765045E+00 -0.3929075E-01
  0.2624078E-04 -0.2184574E+00 -0.5506670E+01 -0.4890115E+01 -0.9309382E-01 -0.5197230E+00 -0.3421587E-01
  0.3586112E-04 -0.1937706E+00 -0.5430851E+01 -0.4554223E+01 -0.7714322E-01 -0.5047216E+00 -0.3290927E-01
  0.4908301E-04 -0.1850005E+00 -0.5329480E+01 -0.4163615E+01 -0.6170795E-01 -0.4947308E+00 -0.3216541E-01
  0.6551997E-04 -0.1792238E+00 -0.5207638E+01 -0.3765905E+01 -0.4901458E-01 -0.4840257E+00 -0.3141253E-01
  0.8695115E-04 -0.1729633E+00 -0.5055624E+01 -0.3360442E+01 -0.3894017E-01 -0.4709348E+00 -0.3050177E-01
  0.1148940E-03 -0.1656176E+00 -0.4868361E+01 -0.2967757E+01 -0.3156770E-01 -0.4550685E+00 -0.2940425E-01
  0.1496315E-03 -0.1574473E+00 -0.4651243E+01 -0.2619277E+01 -0.2662386E-01 -0.4369881E+00 -0.2816120E-01
  0.1928159E-03 -0.1485251E+00 -0.4403506E+01 -0.2320322E+01 -0.2328428E-01 -0.4167150E+00 -0.2677699E-01
  0.2465011E-03 -0.1389933E+00 -0.4126188E+01 -0.2069264E+01 -0.2086364E-01 -0.3944174E+00 -0.2526631E-01
  0.3132406E-03 -0.1290447E+00 -0.3822777E+01 -0.1859020E+01 -0.1890640E-01 -0.3704039E+00 -0.2365310E-01
  0.3926765E-03 -0.1192695E+00 -0.3511511E+01 -0.1685678E+01 -0.1722963E-01 -0.3460521E+00 -0.2203137E-01
  0.4914283E-03 -0.1094668E+00 -0.3188095E+01 -0.1532520E+01 -0.1566215E-01 -0.3208420E+00 -0.2036735E-01
  0.6089664E-03 -0.1001902E+00 -0.2874783E+01 -0.1398170E+01 -0.1423239E-01 -0.2962690E+00 -0.1875925E-01
  0.7488648E-03 -0.9150922E-01 -0.2579930E+01 -0.1277261E+01 -0.1292356E-01 -0.2726614E+00 -0.1722632E-01
  0.9153771E-03 -0.8345823E-01 -0.2310598E+01 -0.1166799E+01 -0.1172621E-01 -0.2502775E+00 -0.1578269E-01
  0.1113566E-02 -0.7603704E-01 -0.2071624E+01 -0.1065093E+01 -0.1063129E-01 -0.2292797E+00 -0.1443601E-01
  0.1349459E-02 -0.6922147E-01 -0.1864944E+01 -0.9710747E+00 -0.9629292E-02 -0.2097420E+00 -0.1318839E-01
  0.1630227E-02 -0.6297294E-01 -0.1689446E+01 -0.8839512E+00 -0.8710794E-02 -0.1916659E+00 -0.1203775E-01
  0.1964408E-02 -0.5724635E-01 -0.1541470E+01 -0.8030652E+00 -0.7867053E-02 -0.1750010E+00 -0.1097923E-01
  0.2362163E-02 -0.5199568E-01 -0.1415804E+01 -0.7278534E+00 -0.7090357E-02 -0.1596658E+00 -0.1000656E-01
  0.2835586E-02 -0.4717712E-01 -0.1306901E+01 -0.6578398E+00 -0.6374189E-02 -0.1455645E+00 -0.9112918E-02
  0.3399072E-02 -0.4275081E-01 -0.1209902E+01 -0.5926374E+00 -0.5713296E-02 -0.1325977E+00 -0.8291594E-02
  0.4069755E-02 -0.3868151E-01 -0.1121225E+01 -0.5319530E+00 -0.5103678E-02 -0.1206695E+00 -0.7536261E-02
  0.4868027E-02 -0.3493890E-01 -0.1038642E+01 -0.4755885E+00 -0.4542534E-02 -0.1096903E+00 -0.6841143E-02
  0.5818161E-02 -0.3149739E-01 -0.9609981E+00 -0.4234378E+00 -0.4028127E-02 -0.9957875E-01 -0.6201095E-02
  0.6949047E-02 -0.2833541E-01 -0.8878091E+00 -0.3754732E+00 -0.3559557E-02 -0.9026258E-01 -0.5611654E-02
  0.8295070E-02 -0.2543445E-01 -0.8189022E+00 -0.3317196E+00 -0.3136401E-02 -0.8167947E-01 -0.5069027E-02
  0.9968396E-02 -0.2268436E-01 -0.7519613E+00 -0.2908716E+00 -0.2745321E-02 -0.7349590E-01 -0.4552246E-02
  0.1204861E-01 -0.2010765E-01 -0.6874857E+00 -0.2535469E+00 -0.2391979E-02 -0.6576886E-01 -0.4065047E-02
  0.1476089E-01 -0.1763214E-01 -0.6237093E+00 -0.2190388E+00 -0.2068726E-02 -0.5826098E-01 -0.3592482E-02
  0.1829725E-01 -0.1531388E-01 -0.5615748E+00 -0.1882555E+00 -0.1783476E-02 -0.5110249E-01 -0.3143064E-02
  0.2315753E-01 -0.1311823E-01 -0.4996551E+00 -0.1607870E+00 -0.1530984E-02 -0.4412628E-01 -0.2707069E-02
  0.2983734E-01 -0.1113108E-01 -0.4393070E+00 -0.1374842E+00 -0.1318145E-02 -0.3755682E-01 -0.2299915E-02
  0.3854674E-01 -0.9474674E-02 -0.3838693E+00 -0.1193291E+00 -0.1153004E-02 -0.3183079E-01 -0.1949273E-02
  0.4990242E-01 -0.8136982E-02 -0.3334721E+00 -0.1057589E+00 -0.1029715E-02 -0.2699779E-01 -0.1657362E-02
  0.6470841E-01 -0.7102183E-02 -0.2879162E+00 -0.9618701E-01 -0.9431876E-03 -0.2308339E-01 -0.1424152E-02
  0.8401306E-01 -0.6348941E-02 -0.2470130E+00 -0.8996988E-01 -0.8877348E-03 -0.2005863E-01 -0.1246310E-02
  0.1080119E+00 -0.5857868E-02 -0.2116885E+00 -0.8640506E-01 -0.8570575E-03 -0.1790109E-01 -0.1121378E-02
  0.1393025E+00 -0.5552924E-02 -0.1803058E+00 -0.8451447E-01 -0.8416028E-03 -0.1636422E-01 -0.1034276E-02
  0.1782019E+00 -0.5389226E-02 -0.1534394E+00 -0.8358943E-01 -0.8355064E-03 -0.1535875E-01 -0.9792776E-03
  0.2289205E+00 -0.5305264E-02 -0.1301975E+00 -0.8312633E-01 -0.8336039E-03 -0.1470224E-01 -0.9450975E-03
  0.2892877E+00 -0.5269124E-02 -0.1116624E+00 -0.8277758E-01 -0.8338153E-03 -0.1432448E-01 -0.9268267E-03
  0.3679968E+00 -0.5249583E-02 -0.9674814E-01 -0.8249325E-01 -0.8344634E-03 -0.1409422E-01 -0.9163805E-03
  0.4616795E+00 -0.5241849E-02 -0.8561353E-01 -0.8209012E-01 -0.8357442E-03 -0.1397729E-01 -0.9117278E-03
  0.5781423E+00 -0.5236881E-02 -0.7752273E-01 -0.8165515E-01 -0.8370976E-03 -0.1391215E-01 -0.9093207E-03
  0.7229246E+00 -0.5235942E-02 -0.7157360E-01 -0.8109870E-01 -0.8388060E-03 -0.1387909E-01 -0.9084296E-03
  0.8952500E+00 -0.5239857E-02 -0.6716679E-01 -0.8038846E-01 -0.8409421E-03 -0.1386652E-01 -0.9086858E-03
  0.1100358E+01 -0.5247460E-02 -0.6382983E-01 -0.7955946E-01 -0.8433835E-03 -0.1386432E-01 -0.9096088E-03
  0.1344486E+01 -0.5259464E-02 -0.6114676E-01 -0.7857411E-01 -0.8462428E-03 -0.1387196E-01 -0.9113087E-03
  0.1635056E+01 -0.5276167E-02 -0.5889086E-01 -0.7740386E-01 -0.8495989E-03 -0.1388980E-01 -0.9138767E-03
  0.1980903E+01 -0.5297862E-02 -0.5692051E-01 -0.7601647E-01 -0.8535423E-03 -0.1391877E-01 -0.9174172E-03
  0.2392544E+01 -0.5324934E-02 -0.5512738E-01 -0.7437502E-01 -0.8581788E-03 -0.1395990E-01 -0.9220430E-03
  0.2882495E+01 -0.5357913E-02 -0.5341452E-01 -0.7243757E-01 -0.8636309E-03 -0.1401421E-01 -0.9278790E-03
  0.3382495E+01 -0.5399490E-02 -0.5146045E-01 -0.7009572E-01 -0.8702125E-03 -0.1408915E-01 -0.9355833E-03
  0.3882495E+01 -0.5440093E-02 -0.4984899E-01 -0.6779948E-01 -0.8766553E-03 -0.1416192E-01 -0.9431396E-03
  0.4382495E+01 -0.5480040E-02 -0.4840621E-01 -0.6555370E-01 -0.8829700E-03 -0.1423354E-01 -0.9506329E-03
  0.4882495E+01 -0.5519565E-02 -0.4704824E-01 -0.6334983E-01 -0.8891870E-03 -0.1430433E-01 -0.9581074E-03
  0.5382495E+01 -0.5558633E-02 -0.4574885E-01 -0.6118887E-01 -0.8953065E-03 -0.1437397E-01 -0.9655470E-03
  0.5882495E+01 -0.5597214E-02 -0.4449467E-01 -0.5907179E-01 -0.9013277E-03 -0.1444221E-01 -0.9729389E-03
  0.6382495E+01 -0.5635281E-02 -0.4327782E-01 -0.5699945E-01 -0.9072493E-03 -0.1450889E-01 -0.9802737E-03
  0.6882495E+01 -0.5672813E-02 -0.4209332E-01 -0.5497254E-01 -0.9130700E-03 -0.1457387E-01 -0.9875442E-03
  0.7382495E+01 -0.5709792E-02 -0.4093782E-01 -0.5299168E-01 -0.9187882E-03 -0.1463708E-01 -0.9947446E-03
  0.7882495E+01 -0.5746201E-02 -0.3980904E-01 -0.5105735E-01 -0.9244028E-03 -0.1469843E-01 -0.1001870E-02
  0.8382495E+01 -0.5782027E-02 -0.3870532E-01 -0.4916993E-01 -0.9299124E-03 -0.1475787E-01 -0.1008918E-02
  0.8882495E+01 -0.5817257E-02 -0.3762547E-01 -0.4732970E-01 -0.9353158E-03 -0.1481537E-01 -0.1015884E-02
  0.9382495E+01 -0.5851881E-02 -0.3656861E-01 -0.4553685E-01 -0.9406121E-03 -0.1487088E-01 -0.1022765E-02
  0.9882495E+01 -0.5885891E-02 -0.3553405E-01 -0.4379148E-01 -0.9458004E-03 -0.1492438E-01 -0.1029560E-02
  0.1038249E+02 -0.5919278E-02 -0.3452128E-01 -0.4209358E-01 -0.9508799E-03 -0.1497586E-01 -0.1036267E-02
  0.1088249E+02 -0.5952038E-02 -0.3352989E-01 -0.4044309E-01 -0.9558502E-03 -0.1502530E-01 -0.1042883E-02
  0.1138249E+02 -0.5984166E-02 -0.3255957E-01 -0.3883985E-01 -0.9607109E-03 -0.1507271E-01 -0.1049408E-02
  0.1188249E+02 -0.6015658E-02 -0.3161003E-01 -0.3728360E-01 -0.9654617E-03 -0.1511806E-01 -0.1055841E-02
  0.1238249E+02 -0.6046512E-02 -0.3068107E-01 -0.3577404E-01 -0.9701026E-03 -0.1516138E-01 -0.1062180E-02
  0.1288249E+02 -0.6076728E-02 -0.2977247E-01 -0.3431079E-01 -0.9746337E-03 -0.1520266E-01 -0.1068426E-02
  0.1338249E+02 -0.6106306E-02 -0.2888407E-01 -0.3289340E-01 -0.9790553E-03 -0.1524191E-01 -0.1074577E-02
  0.1388249E+02 -0.6135247E-02 -0.2801570E-01 -0.3152136E-01 -0.9833678E-03 -0.1527916E-01 -0.1080634E-02
  0.1438249E+02 -0.6163552E-02 -0.2716720E-01 -0.3019409E-01 -0.9875718E-03 -0.1531440E-01 -0.1086597E-02
  0.1488249E+02 -0.6191227E-02 -0.2633840E-01 -0.2891098E-01 -0.9916680E-03 -0.1534768E-01 -0.1092466E-02
  0.1538249E+02 -0.6218273E-02 -0.2552913E-01 -0.2767136E-01 -0.9956571E-03 -0.1537899E-01 -0.1098241E-02
  0.1588249E+02 -0.6244698E-02 -0.2473924E-01 -0.2647450E-01 -0.9995403E-03 -0.1540837E-01 -0.1103922E-02
  0.1638249E+02 -0.6270505E-02 -0.2396854E-01 -0.2531964E-01 -0.1003319E-02 -0.1543585E-01 -0.1109511E-02
  0.1688249E+02 -0.6295703E-02 -0.2321685E-01 -0.2420600E-01 -0.1006993E-02 -0.1546145E-01 -0.1115009E-02
  0.1738249E+02 -0.6320297E-02 -0.2248397E-01 -0.2313274E-01 -0.1010565E-02 -0.1548520E-01 -0.1120415E-02
  0.1788249E+02 -0.6344296E-02 -0.2176970E-01 -0.2209901E-01 -0.1014036E-02 -0.1550713E-01 -0.1125732E-02
  0.1838249E+02 -0.6367708E-02 -0.2107382E-01 -0.2110392E-01 -0.1017408E-02 -0.1552728E-01 -0.1130961E-02
  0.1888249E+02 -0.6390542E-02 -0.2039610E-01 -0.2014657E-01 -0.1020681E-02 -0.1554568E-01 -0.1136102E-02
  0.1938249E+02 -0.6412807E-02 -0.1973632E-01 -0.1922604E-01 -0.1023859E-02 -0.1556236E-01 -0.1141157E-02
  0.1988249E+02 -0.6434514E-02 -0.1909421E-01 -0.1834138E-01 -0.1026941E-02 -0.1557736E-01 -0.1146128E-02
  0.2038249E+02 -0.6455672E-02 -0.1846953E-01 -0.1749166E-01 -0.1029931E-02 -0.1559072E-01 -0.1151015E-02
  0.2088249E+02 -0.6476291E-02 -0.1786202E-01 -0.1667592E-01 -0.1032830E-02 -0.1560246E-01 -0.1155822E-02
  0.2138249E+02 -0.6496383E-02 -0.1727139E-01 -0.1589319E-01 -0.1035640E-02 -0.1561264E-01 -0.1160548E-02
  0.2188249E+02 -0.6515959E-02 -0.1669738E-01 -0.1514251E-01 -0.1038362E-02 -0.1562129E-01 -0.1165196E-02
  0.2238249E+02 -0.6535030E-02 -0.1613969E-01 -0.1442293E-01 -0.1040999E-02 -0.1562844E-01 -0.1169768E-02
  0.2288249E+02 -0.6553607E-02 -0.1559804E-01 -0.1373348E-01 -0.1043552E-02 -0.1563414E-01 -0.1174265E-02
  0.2338249E+02 -0.6571702E-02 -0.1507212E-01 -0.1307321E-01 -0.1046024E-02 -0.1563842E-01 -0.1178690E-02
  0.2388249E+02 -0.6589326E-02 -0.1456163E-01 -0.1244118E-01 -0.1048416E-02 -0.1564132E-01 -0.1183043E-02
  0.2438249E+02 -0.6606491E-02 -0.1406627E-01 -0.1183643E-01 -0.1050731E-02 -0.1564288E-01 -0.1187327E-02
  0.2488249E+02 -0.6623209E-02 -0.1358572E-01 -0.1125806E-01 -0.1052971E-02 -0.1564314E-01 -0.1191544E-02
  0.2538249E+02 -0.6639492E-02 -0.1311967E-01 -0.1070514E-01 -0.1055136E-02 -0.1564213E-01 -0.1195695E-02
  0.2588249E+02 -0.6655351E-02 -0.1266782E-01 -0.1017678E-01 -0.1057230E-02 -0.1563990E-01 -0.1199782E-02
  0.2638249E+02 -0.6670797E-02 -0.1222983E-01 -0.9672080E-02 -0.1059255E-02 -0.1563647E-01 -0.1203808E-02
  0.2688249E+02 -0.6685843E-02 -0.1180541E-01 -0.9190186E-02 -0.1061211E-02 -0.1563189E-01 -0.1207774E-02
  0.2738249E+02 -0.6700499E-02 -0.1139422E-01 -0.8730243E-02 -0.1063102E-02 -0.1562619E-01 -0.1211681E-02
  0.2788249E+02 -0.6714778E-02 -0.1099597E-01 -0.8291418E-02 -0.1064929E-02 -0.1561940E-01 -0.1215532E-02
  0.2838249E+02 -0.6728690E-02 -0.1061032E-01 -0.7872898E-02 -0.1066694E-02 -0.1561157E-01 -0.1219329E-02
  0.2888249E+02 -0.6742246E-02 -0.1023698E-01 -0.7473889E-02 -0.1068398E-02 -0.1560272E-01 -0.1223073E-02
  0.2938249E+02 -0.6755457E-02 -0.9875622E-02 -0.7093616E-02 -0.1070045E-02 -0.1559289E-01 -0.1226766E-02
  0.2988249E+02 -0.6768334E-02 -0.9525948E-02 -0.6731327E-02 -0.1071634E-02 -0.1558211E-01 -0.1230410E-02
  0.3038249E+02 -0.6780888E-02 -0.9187649E-02 -0.6386288E-02 -0.1073169E-02 -0.1557041E-01 -0.1234006E-02
  0.3088249E+02 -0.6793128E-02 -0.8860424E-02 -0.6057790E-02 -0.1074651E-02 -0.1555783E-01 -0.1237556E-02
  0.3138249E+02 -0.6805065E-02 -0.8543973E-02 -0.5745140E-02 -0.1076081E-02 -0.1554438E-01 -0.1241062E-02
  0.3188249E+02 -0.6816709E-02 -0.8238003E-02 -0.5447670E-02 -0.1077461E-02 -0.1553012E-01 -0.1244525E-02
  0.3238249E+02 -0.6828069E-02 -0.7942223E-02 -0.5164731E-02 -0.1078794E-02 -0.1551505E-01 -0.1247948E-02
  0.3288249E+02 -0.6839155E-02 -0.7656346E-02 -0.4895698E-02 -0.1080079E-02 -0.1549922E-01 -0.1251331E-02
  0.3338249E+02 -0.6849976E-02 -0.7380091E-02 -0.4639962E-02 -0.1081320E-02 -0.1548264E-01 -0.1254676E-02
  0.3388249E+02 -0.6860540E-02 -0.7113180E-02 -0.4396940E-02 -0.1082517E-02 -0.1546534E-01 -0.1257985E-02
  0.3438249E+02 -0.6870858E-02 -0.6855342E-02 -0.4166066E-02 -0.1083671E-02 -0.1544736E-01 -0.1261258E-02
  0.3488249E+02 -0.6880937E-02 -0.6606310E-02 -0.3946796E-02 -0.1084785E-02 -0.1542871E-01 -0.1264499E-02
  0.3538249E+02 -0.6890785E-02 -0.6365821E-02 -0.3738604E-02 -0.1085860E-02 -0.1540942E-01 -0.1267707E-02
  0.3588249E+02 -0.6900411E-02 -0.6133619E-02 -0.3540985E-02 -0.1086897E-02 -0.1538951E-01 -0.1270884E-02
  0.3638249E+02 -0.6909823E-02 -0.5909452E-02 -0.3353452E-02 -0.1087896E-02 -0.1536901E-01 -0.1274031E-02
  0.3688249E+02 -0.6919027E-02 -0.5693075E-02 -0.3175539E-02 -0.1088861E-02 -0.1534793E-01 -0.1277151E-02
  0.3738249E+02 -0.6928032E-02 -0.5484247E-02 -0.3006796E-02 -0.1089791E-02 -0.1532630E-01 -0.1280243E-02
  0.3788249E+02 -0.6936845E-02 -0.5282733E-02 -0.2846790E-02 -0.1090688E-02 -0.1530414E-01 -0.1283310E-02
  0.3838249E+02 -0.6945472E-02 -0.5088304E-02 -0.2695109E-02 -0.1091553E-02 -0.1528146E-01 -0.1286352E-02
  0.3888249E+02 -0.6953920E-02 -0.4900735E-02 -0.2551354E-02 -0.1092388E-02 -0.1525830E-01 -0.1289370E-02
  0.3938249E+02 -0.6962196E-02 -0.4719809E-02 -0.2415145E-02 -0.1093192E-02 -0.1523466E-01 -0.1292366E-02
  0.3988249E+02 -0.6970305E-02 -0.4545311E-02 -0.2286117E-02 -0.1093968E-02 -0.1521056E-01 -0.1295341E-02
  0.4038249E+02 -0.6978255E-02 -0.4377034E-02 -0.2163921E-02 -0.1094716E-02 -0.1518602E-01 -0.1298295E-02
  0.4088249E+02 -0.6986051E-02 -0.4214776E-02 -0.2048221E-02 -0.1095438E-02 -0.1516106E-01 -0.1301231E-02
  0.4138249E+02 -0.6993698E-02 -0.4058340E-02 -0.1938699E-02 -0.1096133E-02 -0.1513569E-01 -0.1304147E-02
  0.4188249E+02 -0.7001202E-02 -0.3907535E-02 -0.1835048E-02 -0.1096804E-02 -0.1510993E-01 -0.1307047E-02
  0.4238249E+02 -0.7008568E-02 -0.3762173E-02 -0.1736976E-02 -0.1097450E-02 -0.1508380E-01 -0.1309930E-02
  0.4288249E+02 -0.7015801E-02 -0.3622074E-02 -0.1644202E-02 -0.1098074E-02 -0.1505730E-01 -0.1312797E-02
  0.4338249E+02 -0.7022907E-02 -0.3487061E-02 -0.1556461E-02 -0.1098675E-02 -0.1503045E-01 -0.1315649E-02
  0.4388249E+02 -0.7029889E-02 -0.3356963E-02 -0.1473498E-02 -0.1099254E-02 -0.1500327E-01 -0.1318488E-02
  0.4438249E+02 -0.7036753E-02 -0.3231614E-02 -0.1395069E-02 -0.1099812E-02 -0.1497576E-01 -0.1321313E-02
  0.4488249E+02 -0.7043502E-02 -0.3110852E-02 -0.1320943E-02 -0.1100350E-02 -0.1494794E-01 -0.1324126E-02
  0.4538249E+02 -0.7050142E-02 -0.2994521E-02 -0.1250898E-02 -0.1100869E-02 -0.1491982E-01 -0.1326928E-02
  0.4588249E+02 -0.7056676E-02 -0.2882469E-02 -0.1184725E-02 -0.1101369E-02 -0.1489142E-01 -0.1329718E-02
  0.4638249E+02 -0.7063107E-02 -0.2774547E-02 -0.1122222E-02 -0.1101850E-02 -0.1486273E-01 -0.1332498E-02
  0.4688249E+02 -0.7069441E-02 -0.2670614E-02 -0.1063198E-02 -0.1102314E-02 -0.1483378E-01 -0.1335269E-02
  0.4738249E+02 -0.7075679E-02 -0.2570531E-02 -0.1007471E-02 -0.1102761E-02 -0.1480457E-01 -0.1338030E-02
  0.4788249E+02 -0.7081827E-02 -0.2474162E-02 -0.9548681E-03 -0.1103192E-02 -0.1477512E-01 -0.1340784E-02
  0.4838249E+02 -0.7087886E-02 -0.2381378E-02 -0.9052240E-03 -0.1103607E-02 -0.1474542E-01 -0.1343529E-02
  0.4888249E+02 -0.7093861E-02 -0.2292053E-02 -0.8583822E-03 -0.1104006E-02 -0.1471550E-01 -0.1346267E-02
  0.4938249E+02 -0.7099754E-02 -0.2206065E-02 -0.8141935E-03 -0.1104390E-02 -0.1468535E-01 -0.1348999E-02
  0.4988249E+02 -0.7105568E-02 -0.2123295E-02 -0.7725160E-03 -0.1104760E-02 -0.1465499E-01 -0.1351724E-02
  0.5000000E+02 -0.7116385E-02 -0.1693180E-02 -0.7063820E-03 -0.1105321E-02 -0.1458866E-01 -0.1357441E-02
  0.5024224E+02 -0.7112052E-02 -0.2018088E-02 -0.7284069E-03 -0.1105157E-02 -0.1461977E-01 -0.1354825E-02
  0.5074224E+02 -0.7114414E-02 -0.2066297E-02 -0.7116358E-03 -0.1105317E-02 -0.1460877E-01 -0.1355841E-02
  0.5124224E+02 -0.7120957E-02 -0.1921698E-02 -0.6713246E-03 -0.1105695E-02 -0.1457183E-01 -0.1359079E-02
  0.5174224E+02 -0.7126525E-02 -0.1844840E-02 -0.6377827E-03 -0.1106016E-02 -0.1454040E-01 -0.1361808E-02
  0.5224224E+02 -0.7132009E-02 -0.1774365E-02 -0.6062214E-03 -0.1106324E-02 -0.1450909E-01 -0.1364514E-02
  0.5274224E+02 -0.7137427E-02 -0.1707383E-02 -0.5764899E-03 -0.1106620E-02 -0.1447764E-01 -0.1367215E-02
  0.5324224E+02 -0.7142782E-02 -0.1643186E-02 -0.5484864E-03 -0.1106905E-02 -0.1444603E-01 -0.1369913E-02
  0.5374224E+02 -0.7148077E-02 -0.1581527E-02 -0.5221156E-03 -0.1107179E-02 -0.1441427E-01 -0.1372607E-02
  0.5424224E+02 -0.7153315E-02 -0.1522259E-02 -0.4972875E-03 -0.1107441E-02 -0.1438234E-01 -0.1375300E-02
  0.5474224E+02 -0.7158496E-02 -0.1465272E-02 -0.4739163E-03 -0.1107693E-02 -0.1435027E-01 -0.1377990E-02
  0.5524224E+02 -0.7163624E-02 -0.1410471E-02 -0.4519211E-03 -0.1107935E-02 -0.1431805E-01 -0.1380679E-02
  0.5574224E+02 -0.7168700E-02 -0.1357770E-02 -0.4312249E-03 -0.1108166E-02 -0.1428570E-01 -0.1383367E-02
  0.5624224E+02 -0.7173725E-02 -0.1307088E-02 -0.4117549E-03 -0.1108388E-02 -0.1425321E-01 -0.1386053E-02
  0.5674224E+02 -0.7178702E-02 -0.1258349E-02 -0.3934421E-03 -0.1108600E-02 -0.1422059E-01 -0.1388740E-02
  0.5724224E+02 -0.7183632E-02 -0.1211480E-02 -0.3762212E-03 -0.1108803E-02 -0.1418784E-01 -0.1391426E-02
  0.5774224E+02 -0.7188516E-02 -0.1166410E-02 -0.3600301E-03 -0.1108998E-02 -0.1415497E-01 -0.1394112E-02
  0.5824224E+02 -0.7193357E-02 -0.1123073E-02 -0.3448103E-03 -0.1109183E-02 -0.1412199E-01 -0.1396798E-02
  0.5874224E+02 -0.7198154E-02 -0.1081403E-02 -0.3305062E-03 -0.1109360E-02 -0.1408889E-01 -0.1399485E-02
  0.5924224E+02 -0.7202910E-02 -0.1041337E-02 -0.3170653E-03 -0.1109528E-02 -0.1405568E-01 -0.1402173E-02
  0.5974224E+02 -0.7207626E-02 -0.1002815E-02 -0.3044378E-03 -0.1109689E-02 -0.1402236E-01 -0.1404862E-02
  0.6024224E+02 -0.7212304E-02 -0.9657794E-03 -0.2925766E-03 -0.1109841E-02 -0.1398894E-01 -0.1407553E-02
  0.6074224E+02 -0.7216943E-02 -0.9301736E-03 -0.2814372E-03 -0.1109986E-02 -0.1395542E-01 -0.1410245E-02
  0.6124224E+02 -0.7221546E-02 -0.8959435E-03 -0.2709775E-03 -0.1110123E-02 -0.1392180E-01 -0.1412939E-02
  0.6174224E+02 -0.7226113E-02 -0.8630369E-03 -0.2611574E-03 -0.1110253E-02 -0.1388809E-01 -0.1415635E-02
  0.6224224E+02 -0.7230645E-02 -0.8314035E-03 -0.2519394E-03 -0.1110376E-02 -0.1385429E-01 -0.1418333E-02
  0.6274224E+02 -0.7235144E-02 -0.8009950E-03 -0.2432876E-03 -0.1110492E-02 -0.1382039E-01 -0.1421033E-02
  0.6324224E+02 -0.7239610E-02 -0.7717644E-03 -0.2351684E-03 -0.1110600E-02 -0.1378642E-01 -0.1423737E-02
  0.6374224E+02 -0.7244044E-02 -0.7436667E-03 -0.2275497E-03 -0.1110702E-02 -0.1375236E-01 -0.1426443E-02
  0.6424224E+02 -0.7248447E-02 -0.7166585E-03 -0.2204013E-03 -0.1110798E-02 -0.1371822E-01 -0.1429152E-02
  0.6474224E+02 -0.7252820E-02 -0.6906980E-03 -0.2136948E-03 -0.1110886E-02 -0.1368400E-01 -0.1431865E-02
  0.6524224E+02 -0.7257163E-02 -0.6657449E-03 -0.2074029E-03 -0.1110969E-02 -0.1364970E-01 -0.1434580E-02
  0.6574224E+02 -0.7261477E-02 -0.6417602E-03 -0.2015001E-03 -0.1111045E-02 -0.1361533E-01 -0.1437300E-02
  0.6624224E+02 -0.7265764E-02 -0.6187067E-03 -0.1959623E-03 -0.1111115E-02 -0.1358089E-01 -0.1440023E-02
  0.6674224E+02 -0.7270022E-02 -0.5965481E-03 -0.1907665E-03 -0.1111179E-02 -0.1354638E-01 -0.1442750E-02
  0.6724224E+02 -0.7274254E-02 -0.5752498E-03 -0.1858910E-03 -0.1111237E-02 -0.1351180E-01 -0.1445480E-02
  0.6774224E+02 -0.7278459E-02 -0.5547784E-03 -0.1813152E-03 -0.1111289E-02 -0.1347716E-01 -0.1448215E-02
  0.6824224E+02 -0.7282639E-02 -0.5351016E-03 -0.1770198E-03 -0.1111335E-02 -0.1344245E-01 -0.1450954E-02
  0.6874224E+02 -0.7286793E-02 -0.5161884E-03 -0.1729863E-03 -0.1111375E-02 -0.1340767E-01 -0.1453698E-02
  0.6924224E+02 -0.7290923E-02 -0.4980091E-03 -0.1691972E-03 -0.1111410E-02 -0.1337284E-01 -0.1456446E-02
  0.6974224E+02 -0.7295028E-02 -0.4805348E-03 -0.1656361E-03 -0.1111439E-02 -0.1333795E-01 -0.1459199E-02
  0.7024224E+02 -0.7299109E-02 -0.4637379E-03 -0.1622873E-03 -0.1111463E-02 -0.1330300E-01 -0.1461956E-02
  0.7074224E+02 -0.7303167E-02 -0.4475918E-03 -0.1591358E-03 -0.1111482E-02 -0.1326799E-01 -0.1464718E-02
  0.7124224E+02 -0.7307202E-02 -0.4320709E-03 -0.1561676E-03 -0.1111495E-02 -0.1323293E-01 -0.1467485E-02
  0.7174224E+02 -0.7311214E-02 -0.4171505E-03 -0.1533694E-03 -0.1111503E-02 -0.1319781E-01 -0.1470258E-02
  0.7224224E+02 -0.7315204E-02 -0.4028069E-03 -0.1507283E-03 -0.1111505E-02 -0.1316264E-01 -0.1473035E-02
  0.7274224E+02 -0.7319172E-02 -0.3890174E-03 -0.1482323E-03 -0.1111502E-02 -0.1312742E-01 -0.1475818E-02
  0.7324224E+02 -0.7323118E-02 -0.3757599E-03 -0.1458700E-03 -0.1111495E-02 -0.1309215E-01 -0.1478606E-02
  0.7374224E+02 -0.7327043E-02 -0.3630134E-03 -0.1436305E-03 -0.1111482E-02 -0.1305683E-01 -0.1481399E-02
  0.7424224E+02 -0.7330946E-02 -0.3507577E-03 -0.1415033E-03 -0.1111464E-02 -0.1302147E-01 -0.1484198E-02
  0.7474224E+02 -0.7334829E-02 -0.3389731E-03 -0.1394788E-03 -0.1111441E-02 -0.1298605E-01 -0.1487003E-02
  0.7524224E+02 -0.7338691E-02 -0.3276410E-03 -0.1375474E-03 -0.1111413E-02 -0.1295060E-01 -0.1489813E-02
  0.7574224E+02 -0.7342533E-02 -0.3167433E-03 -0.1357005E-03 -0.1111380E-02 -0.1291509E-01 -0.1492629E-02
  0.7624224E+02 -0.7346355E-02 -0.3062626E-03 -0.1339294E-03 -0.1111342E-02 -0.1287955E-01 -0.1495451E-02
  0.7674224E+02 -0.7350156E-02 -0.2961825E-03 -0.1322263E-03 -0.1111300E-02 -0.1284396E-01 -0.1498279E-02
  0.7724224E+02 -0.7353938E-02 -0.2864868E-03 -0.1305835E-03 -0.1111252E-02 -0.1280833E-01 -0.1501113E-02
  0.7774224E+02 -0.7357700E-02 -0.2771602E-03 -0.1289940E-03 -0.1111200E-02 -0.1277266E-01 -0.1503953E-02
  0.7824224E+02 -0.7361443E-02 -0.2681879E-03 -0.1274508E-03 -0.1111143E-02 -0.1273695E-01 -0.1506799E-02
  0.7874224E+02 -0.7365167E-02 -0.2595558E-03 -0.1259478E-03 -0.1111082E-02 -0.1270120E-01 -0.1509651E-02
  0.7924224E+02 -0.7368871E-02 -0.2512502E-03 -0.1244788E-03 -0.1111015E-02 -0.1266541E-01 -0.1512509E-02
  0.7974224E+02 -0.7372556E-02 -0.2432581E-03 -0.1230383E-03 -0.1110944E-02 -0.1262959E-01 -0.1515374E-02
  0.8024224E+02 -0.7376222E-02 -0.2355669E-03 -0.1216211E-03 -0.1110868E-02 -0.1259372E-01 -0.1518246E-02
  0.8074224E+02 -0.7379869E-02 -0.2281645E-03 -0.1202223E-03 -0.1110787E-02 -0.1255783E-01 -0.1521123E-02
  0.8124224E+02 -0.7383497E-02 -0.2210395E-03 -0.1188376E-03 -0.1110702E-02 -0.1252190E-01 -0.1524007E-02
  0.8174224E+02 -0.7387107E-02 -0.2141806E-03 -0.1174627E-03 -0.1110612E-02 -0.1248593E-01 -0.1526898E-02
  0.8224224E+02 -0.7390698E-02 -0.2075773E-03 -0.1160942E-03 -0.1110518E-02 -0.1244993E-01 -0.1529795E-02
  0.8274224E+02 -0.7394270E-02 -0.2012193E-03 -0.1147286E-03 -0.1110418E-02 -0.1241390E-01 -0.1532699E-02
  0.8324224E+02 -0.7397824E-02 -0.1950968E-03 -0.1133630E-03 -0.1110315E-02 -0.1237783E-01 -0.1535610E-02
  0.8374224E+02 -0.7401359E-02 -0.1892004E-03 -0.1119951E-03 -0.1110206E-02 -0.1234173E-01 -0.1538528E-02
  0.8424224E+02 -0.7404876E-02 -0.1835211E-03 -0.1106225E-03 -0.1110093E-02 -0.1230560E-01 -0.1541452E-02
  0.8474224E+02 -0.7408374E-02 -0.1780502E-03 -0.1092436E-03 -0.1109975E-02 -0.1226945E-01 -0.1544383E-02
  0.8524224E+02 -0.7411854E-02 -0.1727795E-03 -0.1078570E-03 -0.1109853E-02 -0.1223326E-01 -0.1547321E-02
  0.8574224E+02 -0.7415315E-02 -0.1677010E-03 -0.1064616E-03 -0.1109726E-02 -0.1219704E-01 -0.1550266E-02
  0.8624224E+02 -0.7418758E-02 -0.1628070E-03 -0.1050568E-03 -0.1109595E-02 -0.1216079E-01 -0.1553218E-02
  0.8674224E+02 -0.7422183E-02 -0.1580903E-03 -0.1036423E-03 -0.1109458E-02 -0.1212452E-01 -0.1556177E-02
  0.8724224E+02 -0.7425589E-02 -0.1535438E-03 -0.1022179E-03 -0.1109318E-02 -0.1208822E-01 -0.1559143E-02
  0.8774224E+02 -0.7428976E-02 -0.1491608E-03 -0.1007841E-03 -0.1109172E-02 -0.1205189E-01 -0.1562116E-02
  0.8824224E+02 -0.7432345E-02 -0.1449349E-03 -0.9934128E-04 -0.1109022E-02 -0.1201553E-01 -0.1565097E-02
  0.8874224E+02 -0.7435696E-02 -0.1408599E-03 -0.9789033E-04 -0.1108868E-02 -0.1197915E-01 -0.1568084E-02
  0.8924224E+02 -0.7439027E-02 -0.1369299E-03 -0.9643228E-04 -0.1108709E-02 -0.1194275E-01 -0.1571079E-02
  0.8974224E+02 -0.7442341E-02 -0.1331393E-03 -0.9496834E-04 -0.1108545E-02 -0.1190631E-01 -0.1574081E-02
  0.9024224E+02 -0.7445635E-02 -0.1294825E-03 -0.9349990E-04 -0.1108376E-02 -0.1186986E-01 -0.1577090E-02
  0.9074224E+02 -0.7448911E-02 -0.1259544E-03 -0.9202850E-04 -0.1108203E-02 -0.1183338E-01 -0.1580107E-02
  0.9124224E+02 -0.7452168E-02 -0.1225500E-03 -0.9055580E-04 -0.1108025E-02 -0.1179688E-01 -0.1583130E-02
  0.9174224E+02 -0.7455406E-02 -0.1192646E-03 -0.8908350E-04 -0.1107843E-02 -0.1176035E-01 -0.1586162E-02
  0.9224224E+02 -0.7458626E-02 -0.1160935E-03 -0.8761339E-04 -0.1107656E-02 -0.1172380E-01 -0.1589201E-02
  0.9274224E+02 -0.7461826E-02 -0.1130324E-03 -0.8614727E-04 -0.1107464E-02 -0.1168723E-01 -0.1592247E-02
  0.9324224E+02 -0.7465008E-02 -0.1100770E-03 -0.8468697E-04 -0.1107268E-02 -0.1165064E-01 -0.1595300E-02
  0.9374224E+02 -0.7468170E-02 -0.1072233E-03 -0.8323425E-04 -0.1107067E-02 -0.1161403E-01 -0.1598362E-02
  0.9424224E+02 -0.7471313E-02 -0.1044675E-03 -0.8179087E-04 -0.1106861E-02 -0.1157740E-01 -0.1601430E-02
  0.9474224E+02 -0.7474436E-02 -0.1018059E-03 -0.8035853E-04 -0.1106650E-02 -0.1154074E-01 -0.1604507E-02
  0.9524224E+02 -0.7477541E-02 -0.9923488E-04 -0.7893884E-04 -0.1106435E-02 -0.1150407E-01 -0.1607591E-02
  0.9574224E+02 -0.7480626E-02 -0.9675107E-04 -0.7753332E-04 -0.1106215E-02 -0.1146738E-01 -0.1610682E-02
  0.9624224E+02 -0.7483691E-02 -0.9435119E-04 -0.7614342E-04 -0.1105990E-02 -0.1143067E-01 -0.1613781E-02
  0.9674224E+02 -0.7486737E-02 -0.9203214E-04 -0.7477046E-04 -0.1105761E-02 -0.1139394E-01 -0.1616888E-02
  0.9724224E+02 -0.7489762E-02 -0.8979091E-04 -0.7341566E-04 -0.1105526E-02 -0.1135720E-01 -0.1620003E-02
  0.9774224E+02 -0.7492768E-02 -0.8762461E-04 -0.7208012E-04 -0.1105287E-02 -0.1132043E-01 -0.1623125E-02
  0.9824224E+02 -0.7495754E-02 -0.8553050E-04 -0.7076484E-04 -0.1105043E-02 -0.1128365E-01 -0.1626255E-02
  0.9874224E+02 -0.7498720E-02 -0.8350593E-04 -0.6947069E-04 -0.1104794E-02 -0.1124685E-01 -0.1629393E-02
  0.9924224E+02 -0.7501666E-02 -0.8154834E-04 -0.6819843E-04 -0.1104541E-02 -0.1121004E-01 -0.1632539E-02
  0.9974224E+02 -0.7504591E-02 -0.7965532E-04 -0.6694870E-04 -0.1104282E-02 -0.1117321E-01 -0.1635693E-02
  0.1000000E+03 -0.7508297E-02 -0.7142177E-04 -0.6543317E-04 -0.1103971E-02 -0.1112229E-01 -0.1639961E-02
  0.1005000E+03 -0.7508580E-02 -0.7976036E-04 -0.6524136E-04 -0.1103904E-02 -0.1112418E-01 -0.1639951E-02
  0.1010000E+03 -0.7511841E-02 -0.7538419E-04 -0.6393158E-04 -0.1103610E-02 -0.1108088E-01 -0.1643633E-02
  0.1015000E+03 -0.7514705E-02 -0.7356830E-04 -0.6275199E-04 -0.1103334E-02 -0.1104371E-01 -0.1646836E-02
  0.1020000E+03 -0.7517538E-02 -0.7189949E-04 -0.6160769E-04 -0.1103054E-02 -0.1100677E-01 -0.1650028E-02
  0.1025000E+03 -0.7520349E-02 -0.7030829E-04 -0.6048892E-04 -0.1102768E-02 -0.1096986E-01 -0.1653226E-02
  0.1030000E+03 -0.7523139E-02 -0.6877528E-04 -0.5939463E-04 -0.1102477E-02 -0.1093293E-01 -0.1656431E-02
  0.1035000E+03 -0.7525907E-02 -0.6729432E-04 -0.5832469E-04 -0.1102182E-02 -0.1089600E-01 -0.1659645E-02
  0.1040000E+03 -0.7528654E-02 -0.6586218E-04 -0.5727897E-04 -0.1101881E-02 -0.1085905E-01 -0.1662866E-02
  0.1045000E+03 -0.7531379E-02 -0.6447650E-04 -0.5625734E-04 -0.1101575E-02 -0.1082209E-01 -0.1666095E-02
  0.1050000E+03 -0.7534083E-02 -0.6313536E-04 -0.5525960E-04 -0.1101265E-02 -0.1078512E-01 -0.1669333E-02
  0.1055000E+03 -0.7536765E-02 -0.6183704E-04 -0.5428548E-04 -0.1100949E-02 -0.1074814E-01 -0.1672578E-02
  0.1060000E+03 -0.7539424E-02 -0.6057996E-04 -0.5333471E-04 -0.1100628E-02 -0.1071115E-01 -0.1675832E-02
  0.1065000E+03 -0.7542062E-02 -0.5936263E-04 -0.5240697E-04 -0.1100302E-02 -0.1067416E-01 -0.1679093E-02
  0.1070000E+03 -0.7544677E-02 -0.5818365E-04 -0.5150189E-04 -0.1099971E-02 -0.1063715E-01 -0.1682363E-02
  0.1075000E+03 -0.7547269E-02 -0.5704168E-04 -0.5061911E-04 -0.1099635E-02 -0.1060013E-01 -0.1685641E-02