title = "dataset raoult"
variables = "time","pce(r)","mtbe(r)","pentan(r)","iso-oktan(r)","toluol(r)","1,3,5-tmb(r)"
zone t = "SI, volume =    35", f=point
  0.0000000E+00 -0.1162138E+02 -0.1376629E+02 -0.1070743E+02 -0.8363766E+01 -0.1215151E+02 -0.1099788E+02
  0.1000000E-06 -0.1392510E+01 -0.3829334E+01 -0.3030589E+01 -0.2558910E+01 -0.1163689E+01 -0.1210003E+01
  0.2000000E-06 -0.1100449E+01 -0.3528350E+01 -0.2729874E+01 -0.2258594E+01 -0.8778768E+00 -0.9226397E+00
  0.3558387E-06 -0.8660790E+00 -0.3278210E+01 -0.2480218E+01 -0.2009654E+01 -0.6541873E+00 -0.6963261E+00
  0.5830108E-06 -0.6745481E+00 -0.3063909E+01 -0.2266635E+01 -0.1797128E+01 -0.4774069E+00 -0.5159716E+00
  0.9141681E-06 -0.5115185E+00 -0.2868740E+01 -0.2072514E+01 -0.1604550E+01 -0.3339085E+00 -0.3678337E+00
  0.1396909E-05 -0.3721461E+00 -0.2684860E+01 -0.1890162E+01 -0.1424438E+01 -0.2192135E+00 -0.2474410E+00
  0.2100618E-05 -0.2555890E+00 -0.2508064E+01 -0.1715585E+01 -0.1253098E+01 -0.1319574E+00 -0.1536892E+00
  0.3126442E-05 -0.1626038E+00 -0.2335918E+01 -0.1546658E+01 -0.1088827E+01 -0.7093243E-01 -0.8597741E-01
  0.4536302E-05 -0.9610002E-01 -0.2175021E+01 -0.1390097E+01 -0.9384732E+00 -0.3422448E-01 -0.4350212E-01
  0.6591508E-05 -0.5064022E-01 -0.2013845E+01 -0.1235213E+01 -0.7924591E+00 -0.1432430E-01 -0.1917111E-01
  0.9587461E-05 -0.2383760E-01 -0.1852741E+01 -0.1083164E+01 -0.6528878E+00 -0.5591077E-02 -0.7736774E-02
  0.1349370E-04 -0.1128481E-01 -0.1706368E+01 -0.9481177E+00 -0.5330463E+00 -0.2695364E-02 -0.3637072E-02
  0.1886232E-04 -0.6116357E-02 -0.1563719E+01 -0.8206203E+00 -0.4251352E+00 -0.1887894E-02 -0.2391940E-02
  0.2624078E-04 -0.4376228E-02 -0.1424189E+01 -0.7011556E+00 -0.3303200E+00 -0.1701575E-02 -0.2082235E-02
  0.3586112E-04 -0.3879442E-02 -0.1293483E+01 -0.5951702E+00 -0.2528598E+00 -0.1652354E-02 -0.2002518E-02
  0.4908301E-04 -0.3703065E-02 -0.1163945E+01 -0.4976251E+00 -0.1891214E+00 -0.1619569E-02 -0.1957129E-02
  0.6551997E-04 -0.3586903E-02 -0.1046699E+01 -0.4167007E+00 -0.1429175E+00 -0.1584439E-02 -0.1911189E-02
  0.8695115E-04 -0.3461047E-02 -0.9343507E+00 -0.3472815E+00 -0.1094531E+00 -0.1541487E-02 -0.1855625E-02
  0.1148940E-03 -0.3313426E-02 -0.8268657E+00 -0.2892083E+00 -0.8650068E-01 -0.1489437E-02 -0.1788678E-02
  0.1496315E-03 -0.3149291E-02 -0.7285010E+00 -0.2434650E+00 -0.7176140E-01 -0.1430130E-02 -0.1712867E-02
  0.1928159E-03 -0.2970129E-02 -0.6381422E+00 -0.2077295E+00 -0.6208032E-01 -0.1363644E-02 -0.1628466E-02
  0.2465011E-03 -0.2778811E-02 -0.5552493E+00 -0.1798361E+00 -0.5519525E-01 -0.1290532E-02 -0.1536374E-02
  0.3132406E-03 -0.2579221E-02 -0.4796517E+00 -0.1577817E+00 -0.4970667E-01 -0.1211810E-02 -0.1438058E-02
  0.3926765E-03 -0.2383201E-02 -0.4137310E+00 -0.1404055E+00 -0.4505895E-01 -0.1131994E-02 -0.1339245E-02
  0.4914283E-03 -0.2186726E-02 -0.3544063E+00 -0.1256105E+00 -0.4075876E-01 -0.1049385E-02 -0.1237884E-02
  0.6089664E-03 -0.2000877E-02 -0.3037538E+00 -0.1130355E+00 -0.3687314E-01 -0.9688798E-03 -0.1139953E-02
  0.7488648E-03 -0.1827039E-02 -0.2609339E+00 -0.1020218E+00 -0.3334644E-01 -0.8915533E-03 -0.1046623E-02
  0.9153771E-03 -0.1665881E-02 -0.2251927E+00 -0.9219804E-01 -0.3014509E-01 -0.8182499E-03 -0.9587508E-03
  0.1113566E-02 -0.1517386E-02 -0.1957669E+00 -0.8334539E-01 -0.2723818E-01 -0.7494988E-03 -0.8767980E-03
  0.1349459E-02 -0.1381058E-02 -0.1718320E+00 -0.7531925E-01 -0.2459498E-01 -0.6855400E-03 -0.8008896E-03
  0.1630227E-02 -0.1256112E-02 -0.1524968E+00 -0.6801159E-01 -0.2218617E-01 -0.6263753E-03 -0.7308946E-03
  0.1964408E-02 -0.1141637E-02 -0.1368401E+00 -0.6133513E-01 -0.1998520E-01 -0.5718375E-03 -0.6665155E-03
  0.2362163E-02 -0.1036704E-02 -0.1239773E+00 -0.5521741E-01 -0.1796900E-01 -0.5216584E-03 -0.6073666E-03
  0.2835586E-02 -0.9404315E-03 -0.1131339E+00 -0.4959843E-01 -0.1611826E-01 -0.4755222E-03 -0.5530320E-03
  0.3399072E-02 -0.8520167E-03 -0.1037017E+00 -0.4442959E-01 -0.1441740E-01 -0.4331031E-03 -0.5031014E-03
  0.4069755E-02 -0.7707517E-03 -0.9525639E-01 -0.3967292E-01 -0.1285448E-01 -0.3940856E-03 -0.4571886E-03
  0.4868027E-02 -0.6960270E-03 -0.8753755E-01 -0.3530036E-01 -0.1142087E-01 -0.3581763E-03 -0.4149416E-03
  0.5818161E-02 -0.6273286E-03 -0.8040402E-01 -0.3129282E-01 -0.1011091E-01 -0.3251081E-03 -0.3760468E-03
  0.6949047E-02 -0.5642233E-03 -0.7378555E-01 -0.2763862E-01 -0.8921188E-02 -0.2946444E-03 -0.3402322E-03
  0.8295070E-02 -0.5063391E-03 -0.6764518E-01 -0.2433116E-01 -0.7849661E-02 -0.2665809E-03 -0.3072666E-03
  0.9968396E-02 -0.4514802E-03 -0.6175975E-01 -0.2126508E-01 -0.6861837E-02 -0.2398283E-03 -0.2758780E-03
  0.1204861E-01 -0.4000904E-03 -0.5616551E-01 -0.1848171E-01 -0.5971320E-02 -0.2145711E-03 -0.2462907E-03
  0.1476089E-01 -0.3507328E-03 -0.5069930E-01 -0.1592350E-01 -0.5158332E-02 -0.1900350E-03 -0.2175990E-03
  0.1829725E-01 -0.3045201E-03 -0.4543905E-01 -0.1365367E-01 -0.4442200E-02 -0.1666437E-03 -0.1903175E-03
  0.2315753E-01 -0.2607638E-03 -0.4025607E-01 -0.1163782E-01 -0.3809328E-02 -0.1438534E-03 -0.1638584E-03
  0.2983734E-01 -0.2211692E-03 -0.3526262E-01 -0.9934916E-02 -0.3276490E-02 -0.1223950E-03 -0.1391541E-03
  0.3854674E-01 -0.1881640E-03 -0.3072684E-01 -0.8613064E-02 -0.2863325E-02 -0.1036925E-03 -0.1178797E-03
  0.4990242E-01 -0.1615089E-03 -0.2664091E-01 -0.7628104E-02 -0.2554917E-02 -0.8790852E-04 -0.1001705E-03
  0.6470841E-01 -0.1408828E-03 -0.2297612E-01 -0.6935584E-02 -0.2338261E-02 -0.7512410E-04 -0.8602083E-04
  0.8401306E-01 -0.1258541E-03 -0.1970683E-01 -0.6487919E-02 -0.2198959E-02 -0.6524206E-04 -0.7522513E-04
  0.1080119E+00 -0.1160289E-03 -0.1690004E-01 -0.6234022E-02 -0.2121158E-02 -0.5818582E-04 -0.6762942E-04
  0.1393025E+00 -0.1098949E-03 -0.1441316E-01 -0.6103007E-02 -0.2081070E-02 -0.5315165E-04 -0.6232078E-04
  0.1782019E+00 -0.1065503E-03 -0.1229184E-01 -0.6044412E-02 -0.2063960E-02 -0.4984403E-04 -0.5894581E-04
  0.2289205E+00 -0.1047756E-03 -0.1045820E-01 -0.6022065E-02 -0.2057039E-02 -0.4766924E-04 -0.5682277E-04
  0.2892877E+00 -0.1039285E-03 -0.9001707E-02 -0.6012239E-02 -0.2054978E-02 -0.4639443E-04 -0.5564845E-04
  0.3679968E+00 -0.1033989E-03 -0.7830491E-02 -0.6010833E-02 -0.2053782E-02 -0.4559589E-04 -0.5493953E-04
  0.4616795E+00 -0.1030735E-03 -0.6963675E-02 -0.6007423E-02 -0.2053581E-02 -0.4515542E-04 -0.5456237E-04
  0.5781423E+00 -0.1027831E-03 -0.6340248E-02 -0.6007333E-02 -0.2053171E-02 -0.4487681E-04 -0.5430868E-04
  0.7229246E+00 -0.1025372E-03 -0.5891353E-02 -0.6006651E-02 -0.2052950E-02 -0.4469065E-04 -0.5412567E-04
  0.8952500E+00 -0.1023422E-03 -0.5570583E-02 -0.6004883E-02 -0.2052909E-02 -0.4455615E-04 -0.5398555E-04
  0.1100358E+01 -0.1021774E-03 -0.5339603E-02 -0.6004283E-02 -0.2052790E-02 -0.4444163E-04 -0.5386087E-04
  0.1344486E+01 -0.1020474E-03 -0.5166083E-02 -0.6003797E-02 -0.2052694E-02 -0.4434233E-04 -0.5375287E-04
  0.1635056E+01 -0.1019478E-03 -0.5033050E-02 -0.6003347E-02 -0.2052617E-02 -0.4425620E-04 -0.5366095E-04
  0.1980903E+01 -0.1018724E-03 -0.4930583E-02 -0.6002909E-02 -0.2052552E-02 -0.4418254E-04 -0.5358432E-04
  0.2392544E+01 -0.1018147E-03 -0.4851647E-02 -0.6002466E-02 -0.2052496E-02 -0.4412052E-04 -0.5352145E-04
  0.2882495E+01 -0.1017693E-03 -0.4790301E-02 -0.6002003E-02 -0.2052444E-02 -0.4406879E-04 -0.5347018E-04
  0.3382495E+01 -0.1017691E-03 -0.4719983E-02 -0.5996209E-02 -0.2052803E-02 -0.4404562E-04 -0.5345738E-04
  0.3882495E+01 -0.1017477E-03 -0.4678433E-02 -0.5994884E-02 -0.2052798E-02 -0.4401814E-04 -0.5343289E-04
  0.4382495E+01 -0.1017255E-03 -0.4649404E-02 -0.5994459E-02 -0.2052736E-02 -0.4399405E-04 -0.5341005E-04
  0.4882495E+01 -0.1017063E-03 -0.4625876E-02 -0.5994083E-02 -0.2052676E-02 -0.4397397E-04 -0.5339099E-04
  0.5382495E+01 -0.1016893E-03 -0.4605734E-02 -0.5993735E-02 -0.2052618E-02 -0.4395682E-04 -0.5337469E-04
  0.5882495E+01 -0.1016741E-03 -0.4587911E-02 -0.5993412E-02 -0.2052562E-02 -0.4394183E-04 -0.5336045E-04
  0.6382495E+01 -0.1016602E-03 -0.4571777E-02 -0.5993113E-02 -0.2052506E-02 -0.4392848E-04 -0.5334775E-04
  0.6882495E+01 -0.1016475E-03 -0.4556932E-02 -0.5992840E-02 -0.2052451E-02 -0.4391641E-04 -0.5333628E-04
  0.7382495E+01 -0.1016356E-03 -0.4543100E-02 -0.5992591E-02 -0.2052396E-02 -0.4390537E-04 -0.5332579E-04
  0.7882495E+01 -0.1016244E-03 -0.4530089E-02 -0.5992369E-02 -0.2052342E-02 -0.4389517E-04 -0.5331609E-04
  0.8382495E+01 -0.1016139E-03 -0.4517756E-02 -0.5992174E-02 -0.2052289E-02 -0.4388566E-04 -0.5330706E-04
  0.8882495E+01 -0.1016040E-03 -0.4505994E-02 -0.5992007E-02 -0.2052236E-02 -0.4387674E-04 -0.5329860E-04
  0.9382495E+01 -0.1015945E-03 -0.4494718E-02 -0.5991870E-02 -0.2052184E-02 -0.4386832E-04 -0.5329063E-04
  0.9882495E+01 -0.1015854E-03 -0.4483862E-02 -0.5991764E-02 -0.2052133E-02 -0.4386034E-04 -0.5328307E-04
  0.1038249E+02 -0.1015768E-03 -0.4473372E-02 -0.5991692E-02 -0.2052082E-02 -0.4385274E-04 -0.5327589E-04
  0.1088249E+02 -0.1015684E-03 -0.4463206E-02 -0.5991654E-02 -0.2052032E-02 -0.4384549E-04 -0.5326904E-04
  0.1138249E+02 -0.1015604E-03 -0.4453326E-02 -0.5991652E-02 -0.2051982E-02 -0.4383853E-04 -0.5326248E-04
  0.1188249E+02 -0.1015526E-03 -0.4443702E-02 -0.5991689E-02 -0.2051934E-02 -0.4383186E-04 -0.5325619E-04
  0.1238249E+02 -0.1015451E-03 -0.4434310E-02 -0.5991766E-02 -0.2051886E-02 -0.4382543E-04 -0.5325014E-04
  0.1288249E+02 -0.1015378E-03 -0.4425127E-02 -0.5991885E-02 -0.2051839E-02 -0.4381923E-04 -0.5324431E-04
  0.1338249E+02 -0.1015308E-03 -0.4416135E-02 -0.5992049E-02 -0.2051793E-02 -0.4381325E-04 -0.5323869E-04
  0.1388249E+02 -0.1015239E-03 -0.4407319E-02 -0.5992260E-02 -0.2051747E-02 -0.4380746E-04 -0.5323327E-04
  0.1438249E+02 -0.1015173E-03 -0.4398663E-02 -0.5992520E-02 -0.2051703E-02 -0.4380185E-04 -0.5322802E-04
  0.1488249E+02 -0.1015109E-03 -0.4390155E-02 -0.5992832E-02 -0.2051660E-02 -0.4379643E-04 -0.5322294E-04
  0.1538249E+02 -0.1015046E-03 -0.4381786E-02 -0.5993199E-02 -0.2051617E-02 -0.4379116E-04 -0.5321803E-04
  0.1588249E+02 -0.1014985E-03 -0.4373545E-02 -0.5993624E-02 -0.2051576E-02 -0.4378605E-04 -0.5321326E-04
  0.1638249E+02 -0.1014926E-03 -0.4365424E-02 -0.5994109E-02 -0.2051536E-02 -0.4378109E-04 -0.5320864E-04
  0.1688249E+02 -0.1014869E-03 -0.4357414E-02 -0.5994658E-02 -0.2051496E-02 -0.4377627E-04 -0.5320416E-04
  0.1738249E+02 -0.1014813E-03 -0.4349510E-02 -0.5995275E-02 -0.2051458E-02 -0.4377158E-04 -0.5319981E-04
  0.1788249E+02 -0.1014759E-03 -0.4341703E-02 -0.5995963E-02 -0.2051421E-02 -0.4376703E-04 -0.5319559E-04
  0.1838249E+02 -0.1014706E-03 -0.4333990E-02 -0.5996725E-02 -0.2051385E-02 -0.4376260E-04 -0.5319149E-04
  0.1888249E+02 -0.1014654E-03 -0.4326363E-02 -0.5997567E-02 -0.2051350E-02 -0.4375829E-04 -0.5318751E-04
  0.1938249E+02 -0.1014604E-03 -0.4318818E-02 -0.5998491E-02 -0.2051316E-02 -0.4375410E-04 -0.5318365E-04
  0.1988249E+02 -0.1014556E-03 -0.4311351E-02 -0.5999504E-02 -0.2051283E-02 -0.4375002E-04 -0.5317990E-04
  0.2038249E+02 -0.1014508E-03 -0.4303956E-02 -0.6000609E-02 -0.2051251E-02 -0.4374605E-04 -0.5317626E-04
  0.2088249E+02 -0.1014463E-03 -0.4296629E-02 -0.6001813E-02 -0.2051220E-02 -0.4374219E-04 -0.5317272E-04
  0.2138249E+02 -0.1014418E-03 -0.4289366E-02 -0.6003119E-02 -0.2051191E-02 -0.4373843E-04 -0.5316928E-04
  0.2188249E+02 -0.1014375E-03 -0.4282164E-02 -0.6004535E-02 -0.2051162E-02 -0.4373478E-04 -0.5316595E-04
  0.2238249E+02 -0.1014332E-03 -0.4275018E-02 -0.6006067E-02 -0.2051135E-02 -0.4373122E-04 -0.5316271E-04
  0.2288249E+02 -0.1014292E-03 -0.4267925E-02 -0.6007721E-02 -0.2051108E-02 -0.4372775E-04 -0.5315956E-04
  0.2338249E+02 -0.1014252E-03 -0.4260882E-02 -0.6009504E-02 -0.2051083E-02 -0.4372438E-04 -0.5315651E-04
  0.2388249E+02 -0.1014213E-03 -0.4253885E-02 -0.6011424E-02 -0.2051058E-02 -0.4372110E-04 -0.5315354E-04
  0.2438249E+02 -0.1014176E-03 -0.4246931E-02 -0.6013489E-02 -0.2051035E-02 -0.4371791E-04 -0.5315067E-04
  0.2488249E+02 -0.1014139E-03 -0.4240017E-02 -0.6015708E-02 -0.2051012E-02 -0.4371480E-04 -0.5314787E-04
  0.2538249E+02 -0.1014104E-03 -0.4233140E-02 -0.6018089E-02 -0.2050991E-02 -0.4371177E-04 -0.5314516E-04
  0.2588249E+02 -0.1014070E-03 -0.4226296E-02 -0.6020643E-02 -0.2050971E-02 -0.4370883E-04 -0.5314253E-04
  0.2638249E+02 -0.1014036E-03 -0.4219483E-02 -0.6023379E-02 -0.2050951E-02 -0.4370596E-04 -0.5313998E-04
  0.2688249E+02 -0.1014004E-03 -0.4212698E-02 -0.6026310E-02 -0.2050933E-02 -0.4370317E-04 -0.5313751E-04
  0.2738249E+02 -0.1013973E-03 -0.4205939E-02 -0.6029446E-02 -0.2050915E-02 -0.4370046E-04 -0.5313511E-04
  0.2788249E+02 -0.1013943E-03 -0.4199201E-02 -0.6032800E-02 -0.2050898E-02 -0.4369781E-04 -0.5313278E-04
  0.2838249E+02 -0.1013913E-03 -0.4192484E-02 -0.6036386E-02 -0.2050882E-02 -0.4369524E-04 -0.5313052E-04
  0.2888249E+02 -0.1013885E-03 -0.4185783E-02 -0.6040218E-02 -0.2050867E-02 -0.4369274E-04 -0.5312833E-04
  0.2938249E+02 -0.1013857E-03 -0.4179097E-02 -0.6044312E-02 -0.2050853E-02 -0.4369030E-04 -0.5312620E-04
  0.2988249E+02 -0.1013830E-03 -0.4172423E-02 -0.6048683E-02 -0.2050840E-02 -0.4368793E-04 -0.5312414E-04
  0.3038249E+02 -0.1013804E-03 -0.4165758E-02 -0.6053350E-02 -0.2050827E-02 -0.4368562E-04 -0.5312215E-04
  0.3088249E+02 -0.1013779E-03 -0.4159100E-02 -0.6058330E-02 -0.2050815E-02 -0.4368337E-04 -0.5312021E-04
  0.3138249E+02 -0.1013754E-03 -0.4152447E-02 -0.6063645E-02 -0.2050804E-02 -0.4368118E-04 -0.5311833E-04
  0.3188249E+02 -0.1013731E-03 -0.4145797E-02 -0.6069314E-02 -0.2050794E-02 -0.4367905E-04 -0.5311651E-04
  0.3238249E+02 -0.1013708E-03 -0.4139146E-02 -0.6075361E-02 -0.2050784E-02 -0.4367698E-04 -0.5311475E-04
  0.3288249E+02 -0.1013686E-03 -0.4132493E-02 -0.6081809E-02 -0.2050775E-02 -0.4367496E-04 -0.5311304E-04
  0.3338249E+02 -0.1013664E-03 -0.4125835E-02 -0.6088686E-02 -0.2050767E-02 -0.4367299E-04 -0.5311139E-04
  0.3388249E+02 -0.1013643E-03 -0.4119171E-02 -0.6096018E-02 -0.2050760E-02 -0.4367107E-04 -0.5310978E-04
  0.3438249E+02 -0.1013623E-03 -0.4112498E-02 -0.6103835E-02 -0.2050753E-02 -0.4366921E-04 -0.5310822E-04
  0.3488249E+02 -0.1013604E-03 -0.4105814E-02 -0.6112168E-02 -0.2050746E-02 -0.4366739E-04 -0.5310672E-04
  0.3538249E+02 -0.1013585E-03 -0.4099117E-02 -0.6121051E-02 -0.2050741E-02 -0.4366562E-04 -0.5310525E-04
  0.3588249E+02 -0.1013566E-03 -0.4092405E-02 -0.6130521E-02 -0.2050736E-02 -0.4366389E-04 -0.5310384E-04
  0.3638249E+02 -0.1013548E-03 -0.4085677E-02 -0.6140615E-02 -0.2050731E-02 -0.4366221E-04 -0.5310246E-04
  0.3688249E+02 -0.1013531E-03 -0.4078930E-02 -0.6151375E-02 -0.2050727E-02 -0.4366057E-04 -0.5310113E-04
  0.3738249E+02 -0.1013514E-03 -0.4072162E-02 -0.6162845E-02 -0.2050724E-02 -0.4365897E-04 -0.5309984E-04
  0.3788249E+02 -0.1013498E-03 -0.4065372E-02 -0.6175072E-02 -0.2050721E-02 -0.4365741E-04 -0.5309859E-04
  0.3838249E+02 -0.1013483E-03 -0.4058558E-02 -0.6188106E-02 -0.2050718E-02 -0.4365589E-04 -0.5309738E-04
  0.3888249E+02 -0.1013467E-03 -0.4051717E-02 -0.6202000E-02 -0.2050716E-02 -0.4365440E-04 -0.5309621E-04
  0.3938249E+02 -0.1013453E-03 -0.4044850E-02 -0.6216813E-02 -0.2050715E-02 -0.4365296E-04 -0.5309507E-04
  0.3988249E+02 -0.1013438E-03 -0.4037953E-02 -0.6232606E-02 -0.2050714E-02 -0.4365154E-04 -0.5309397E-04
  0.4038249E+02 -0.1013425E-03 -0.4031026E-02 -0.6249444E-02 -0.2050713E-02 -0.4365017E-04 -0.5309290E-04
  0.4088249E+02 -0.1013411E-03 -0.4024066E-02 -0.6267398E-02 -0.2050713E-02 -0.4364882E-04 -0.5309186E-04
  0.4138249E+02 -0.1013398E-03 -0.4017073E-02 -0.6286543E-02 -0.2050713E-02 -0.4364751E-04 -0.5309086E-04
  0.4188249E+02 -0.1013386E-03 -0.4010044E-02 -0.6306960E-02 -0.2050714E-02 -0.4364622E-04 -0.5308988E-04
  0.4238249E+02 -0.1013373E-03 -0.4002979E-02 -0.6328735E-02 -0.2050715E-02 -0.4364497E-04 -0.5308894E-04
  0.4288249E+02 -0.1013362E-03 -0.3995876E-02 -0.6351960E-02 -0.2050716E-02 -0.4364375E-04 -0.5308802E-04
  0.4338249E+02 -0.1013350E-03 -0.3988734E-02 -0.6376734E-02 -0.2050718E-02 -0.4364255E-04 -0.5308713E-04
  0.4388249E+02 -0.1013339E-03 -0.3981552E-02 -0.6403162E-02 -0.2050720E-02 -0.4364138E-04 -0.5308627E-04
  0.4438249E+02 -0.1013328E-03 -0.3974328E-02 -0.6431358E-02 -0.2050722E-02 -0.4364023E-04 -0.5308543E-04
  0.4488249E+02 -0.1013318E-03 -0.3967061E-02 -0.6461442E-02 -0.2050725E-02 -0.4363912E-04 -0.5308462E-04
  0.4538249E+02 -0.1013308E-03 -0.3959751E-02 -0.6493544E-02 -0.2050728E-02 -0.4363802E-04 -0.5308384E-04
  0.4588249E+02 -0.1013298E-03 -0.3952396E-02 -0.6527804E-02 -0.2050731E-02 -0.4363695E-04 -0.5308307E-04
  0.4638249E+02 -0.1013288E-03 -0.3944995E-02 -0.6564369E-02 -0.2050735E-02 -0.4363590E-04 -0.5308233E-04
  0.4688249E+02 -0.1013279E-03 -0.3937547E-02 -0.6603400E-02 -0.2050739E-02 -0.4363488E-04 -0.5308161E-04
  0.4738249E+02 -0.1013270E-03 -0.3930051E-02 -0.6645066E-02 -0.2050743E-02 -0.4363387E-04 -0.5308092E-04
  0.4788249E+02 -0.1013261E-03 -0.3922507E-02 -0.6689550E-02 -0.2050747E-02 -0.4363289E-04 -0.5308024E-04
  0.4838249E+02 -0.1013253E-03 -0.3914914E-02 -0.6737048E-02 -0.2050752E-02 -0.4363192E-04 -0.5307958E-04
  0.4888249E+02 -0.1013244E-03 -0.3907270E-02 -0.6787769E-02 -0.2050757E-02 -0.4363098E-04 -0.5307894E-04
  0.4938249E+02 -0.1013236E-03 -0.3899576E-02 -0.6841939E-02 -0.2050762E-02 -0.4363005E-04 -0.5307832E-04
  0.4988249E+02 -0.1013229E-03 -0.3891830E-02 -0.6899797E-02 -0.2050767E-02 -0.4362914E-04 -0.5307772E-04
  0.5000000E+02 -0.1013945E-03 -0.3215512E-02 -0.6704853E-02 -0.2051154E-02 -0.4352153E-04 -0.5319457E-04
  0.5024224E+02 -0.1013145E-03 -0.3861736E-02 -0.7010316E-02 -0.2050718E-02 -0.4363593E-04 -0.5306744E-04
  0.5074224E+02 -0.1013089E-03 -0.4023591E-02 -0.7053057E-02 -0.2050713E-02 -0.4364721E-04 -0.5305555E-04
  0.5124224E+02 -0.1013205E-03 -0.3885075E-02 -0.7077543E-02 -0.2050785E-02 -0.4362806E-04 -0.5307515E-04
  0.5174224E+02 -0.1013201E-03 -0.3867616E-02 -0.7150989E-02 -0.2050790E-02 -0.4362616E-04 -0.5307543E-04
  0.5224224E+02 -0.1013194E-03 -0.3856978E-02 -0.7229975E-02 -0.2050796E-02 -0.4362518E-04 -0.5307501E-04
  0.5274224E+02 -0.1013188E-03 -0.3847957E-02 -0.7314412E-02 -0.2050802E-02 -0.4362433E-04 -0.5307454E-04
  0.5324224E+02 -0.1013181E-03 -0.3839391E-02 -0.7404665E-02 -0.2050809E-02 -0.4362350E-04 -0.5307406E-04
  0.5374224E+02 -0.1013175E-03 -0.3830980E-02 -0.7501143E-02 -0.2050816E-02 -0.4362270E-04 -0.5307359E-04
  0.5424224E+02 -0.1013169E-03 -0.3822616E-02 -0.7604284E-02 -0.2050823E-02 -0.4362192E-04 -0.5307313E-04
  0.5474224E+02 -0.1013163E-03 -0.3814252E-02 -0.7714560E-02 -0.2050831E-02 -0.4362115E-04 -0.5307268E-04
  0.5524224E+02 -0.1013157E-03 -0.3805863E-02 -0.7832475E-02 -0.2050838E-02 -0.4362040E-04 -0.5307224E-04
  0.5574224E+02 -0.1013152E-03 -0.3797436E-02 -0.7958570E-02 -0.2050846E-02 -0.4361966E-04 -0.5307181E-04
  0.5624224E+02 -0.1013146E-03 -0.3788965E-02 -0.8093424E-02 -0.2050853E-02 -0.4361893E-04 -0.5307139E-04
  0.5674224E+02 -0.1013141E-03 -0.3780444E-02 -0.8237658E-02 -0.2050861E-02 -0.4361822E-04 -0.5307099E-04
  0.5724224E+02 -0.1013136E-03 -0.3771871E-02 -0.8391936E-02 -0.2050870E-02 -0.4361751E-04 -0.5307059E-04
  0.5774224E+02 -0.1013131E-03 -0.3763245E-02 -0.8556970E-02 -0.2050878E-02 -0.4361682E-04 -0.5307020E-04
  0.5824224E+02 -0.1013126E-03 -0.3754566E-02 -0.8733524E-02 -0.2050886E-02 -0.4361614E-04 -0.5306983E-04
  0.5874224E+02 -0.1013121E-03 -0.3745831E-02 -0.8922413E-02 -0.2050895E-02 -0.4361547E-04 -0.5306946E-04
  0.5924224E+02 -0.1013116E-03 -0.3737041E-02 -0.9124513E-02 -0.2050903E-02 -0.4361480E-04 -0.5306911E-04
  0.5974224E+02 -0.1013111E-03 -0.3728195E-02 -0.9340759E-02 -0.2050912E-02 -0.4361415E-04 -0.5306876E-04
  0.6024224E+02 -0.1013107E-03 -0.3719294E-02 -0.9572152E-02 -0.2050921E-02 -0.4361351E-04 -0.5306842E-04
  0.6074224E+02 -0.1013103E-03 -0.3710335E-02 -0.9819764E-02 -0.2050930E-02 -0.4361287E-04 -0.5306810E-04
  0.6124224E+02 -0.1013098E-03 -0.3701321E-02 -0.1008474E-01 -0.2050939E-02 -0.4361225E-04 -0.5306777E-04
  0.6174224E+02 -0.1013094E-03 -0.3692249E-02 -0.1036831E-01 -0.2050948E-02 -0.4361163E-04 -0.5306746E-04
  0.6224224E+02 -0.1013090E-03 -0.3683120E-02 -0.1067177E-01 -0.2050958E-02 -0.4361102E-04 -0.5306716E-04
  0.6274224E+02 -0.1013086E-03 -0.3673934E-02 -0.1099654E-01 -0.2050967E-02 -0.4361041E-04 -0.5306686E-04
  0.6324224E+02 -0.1013082E-03 -0.3664691E-02 -0.1134410E-01 -0.2050977E-02 -0.4360982E-04 -0.5306657E-04
  0.6374224E+02 -0.1013078E-03 -0.3655389E-02 -0.1171604E-01 -0.2050987E-02 -0.4360923E-04 -0.5306629E-04
  0.6424224E+02 -0.1013075E-03 -0.3646029E-02 -0.1211407E-01 -0.2050997E-02 -0.4360865E-04 -0.5306602E-04
  0.6474224E+02 -0.1013071E-03 -0.3636611E-02 -0.1254001E-01 -0.2051007E-02 -0.4360808E-04 -0.5306575E-04
  0.6524224E+02 -0.1013067E-03 -0.3627134E-02 -0.1299579E-01 -0.2051017E-02 -0.4360751E-04 -0.5306549E-04
  0.6574224E+02 -0.1013064E-03 -0.3617597E-02 -0.1348345E-01 -0.2051027E-02 -0.4360695E-04 -0.5306524E-04
  0.6624224E+02 -0.1013060E-03 -0.3608000E-02 -0.1400521E-01 -0.2051037E-02 -0.4360640E-04 -0.5306499E-04
  0.6674224E+02 -0.1013057E-03 -0.3598343E-02 -0.1456337E-01 -0.2051047E-02 -0.4360585E-04 -0.5306474E-04
  0.6724224E+02 -0.1013054E-03 -0.3588624E-02 -0.1516042E-01 -0.2051058E-02 -0.4360531E-04 -0.5306451E-04
  0.6774224E+02 -0.1013051E-03 -0.3578843E-02 -0.1579898E-01 -0.2051068E-02 -0.4360477E-04 -0.5306428E-04
  0.6824224E+02 -0.1013048E-03 -0.3569000E-02 -0.1648184E-01 -0.2051079E-02 -0.4360424E-04 -0.5306405E-04
  0.6874224E+02 -0.1013044E-03 -0.3559093E-02 -0.1721192E-01 -0.2051090E-02 -0.4360371E-04 -0.5306383E-04
  0.6924224E+02 -0.1013041E-03 -0.3549121E-02 -0.1799236E-01 -0.2051100E-02 -0.4360319E-04 -0.5306362E-04
  0.6974224E+02 -0.1013038E-03 -0.3539084E-02 -0.1882643E-01 -0.2051111E-02 -0.4360268E-04 -0.5306341E-04
  0.7024224E+02 -0.1013036E-03 -0.3528980E-02 -0.1971761E-01 -0.2051122E-02 -0.4360217E-04 -0.5306321E-04
  0.7074224E+02 -0.1013033E-03 -0.3518807E-02 -0.2066954E-01 -0.2051133E-02 -0.4360166E-04 -0.5306301E-04
  0.7124224E+02 -0.1013030E-03 -0.3508566E-02 -0.2168606E-01 -0.2051145E-02 -0.4360116E-04 -0.5306281E-04
  0.7174224E+02 -0.1013027E-03 -0.3498253E-02 -0.2277118E-01 -0.2051156E-02 -0.4360067E-04 -0.5306262E-04
  0.7224224E+02 -0.1013025E-03 -0.3487868E-02 -0.2392912E-01 -0.2051167E-02 -0.4360017E-04 -0.5306244E-04
  0.7274224E+02 -0.1013022E-03 -0.3477410E-02 -0.2516428E-01 -0.2051179E-02 -0.4359969E-04 -0.5306225E-04
  0.7324224E+02 -0.1013019E-03 -0.3466875E-02 -0.2648123E-01 -0.2051190E-02 -0.4359920E-04 -0.5306208E-04
  0.7374224E+02 -0.1013017E-03 -0.3456264E-02 -0.2788473E-01 -0.2051202E-02 -0.4359872E-04 -0.5306190E-04
  0.7424224E+02 -0.1013014E-03 -0.3445574E-02 -0.2937970E-01 -0.2051213E-02 -0.4359825E-04 -0.5306173E-04
  0.7474224E+02 -0.1013012E-03 -0.3434803E-02 -0.3097124E-01 -0.2051225E-02 -0.4359778E-04 -0.5306157E-04
  0.7524224E+02 -0.1013009E-03 -0.3423949E-02 -0.3266458E-01 -0.2051237E-02 -0.4359731E-04 -0.5306141E-04
  0.7574224E+02 -0.1013007E-03 -0.3413010E-02 -0.3446509E-01 -0.2051249E-02 -0.4359684E-04 -0.5306125E-04
  0.7624224E+02 -0.1013005E-03 -0.3401985E-02 -0.3637826E-01 -0.2051261E-02 -0.4359638E-04 -0.5306109E-04
  0.7674224E+02 -0.1013002E-03 -0.3390870E-02 -0.3840966E-01 -0.2051273E-02 -0.4359593E-04 -0.5306094E-04
  0.7724224E+02 -0.1013000E-03 -0.3379666E-02 -0.4056492E-01 -0.2051285E-02 -0.4359547E-04 -0.5306080E-04
  0.7774224E+02 -0.1012998E-03 -0.3368369E-02 -0.4284972E-01 -0.2051297E-02 -0.4359502E-04 -0.5306065E-04
  0.7824224E+02 -0.1012996E-03 -0.3356977E-02 -0.4526973E-01 -0.2051310E-02 -0.4359457E-04 -0.5306051E-04
  0.7874224E+02 -0.1012994E-03 -0.3345488E-02 -0.4783057E-01 -0.2051322E-02 -0.4359413E-04 -0.5306037E-04
  0.7924224E+02 -0.1012992E-03 -0.3333901E-02 -0.5053780E-01 -0.2051335E-02 -0.4359369E-04 -0.5306024E-04
  0.7974224E+02 -0.1012989E-03 -0.3322214E-02 -0.5339684E-01 -0.2051347E-02 -0.4359325E-04 -0.5306010E-04
  0.8024224E+02 -0.1012987E-03 -0.3310425E-02 -0.5641293E-01 -0.2051360E-02 -0.4359281E-04 -0.5305998E-04
  0.8074224E+02 -0.1012985E-03 -0.3298532E-02 -0.5959110E-01 -0.2051372E-02 -0.4359238E-04 -0.5305985E-04
  0.8124224E+02 -0.1012983E-03 -0.3286534E-02 -0.6293607E-01 -0.2051385E-02 -0.4359195E-04 -0.5305973E-04
  0.8174224E+02 -0.1012981E-03 -0.3274430E-02 -0.6645225E-01 -0.2051398E-02 -0.4359152E-04 -0.5305961E-04
  0.8224224E+02 -0.1012980E-03 -0.3262218E-02 -0.7014363E-01 -0.2051411E-02 -0.4359110E-04 -0.5305949E-04
  0.8274224E+02 -0.1012978E-03 -0.3249897E-02 -0.7401376E-01 -0.2051424E-02 -0.4359067E-04 -0.5305937E-04
  0.8324224E+02 -0.1012976E-03 -0.3237467E-02 -0.7806568E-01 -0.2051437E-02 -0.4359025E-04 -0.5305926E-04
  0.8374224E+02 -0.1012974E-03 -0.3224928E-02 -0.8230185E-01 -0.2051450E-02 -0.4358984E-04 -0.5305915E-04
  0.8424224E+02 -0.1012972E-03 -0.3212278E-02 -0.8672413E-01 -0.2051463E-02 -0.4358942E-04 -0.5305904E-04
  0.8474224E+02 -0.1012970E-03 -0.3199517E-02 -0.9133372E-01 -0.2051477E-02 -0.4358901E-04 -0.5305893E-04
  0.8524224E+02 -0.1012969E-03 -0.3186647E-02 -0.9613110E-01 -0.2051490E-02 -0.4358860E-04 -0.5305883E-04
  0.8574224E+02 -0.1012967E-03 -0.3173667E-02 -0.1011160E+00 -0.2051504E-02 -0.4358819E-04 -0.5305873E-04
  0.8624224E+02 -0.1012965E-03 -0.3160578E-02 -0.1062875E+00 -0.2051517E-02 -0.4358778E-04 -0.5305863E-04
  0.8674224E+02 -0.1012963E-03 -0.3147381E-02 -0.1116436E+00 -0.2051531E-02 -0.4358738E-04 -0.5305853E-04
  0.8724224E+02 -0.1012962E-03 -0.3134079E-02 -0.1171819E+00 -0.2051545E-02 -0.4358698E-04 -0.5305844E-04
  0.8774224E+02 -0.1012960E-03 -0.3120672E-02 -0.1228990E+00 -0.2051558E-02 -0.4358658E-04 -0.5305834E-04
  0.8824224E+02 -0.1012958E-03 -0.3107163E-02 -0.1287906E+00 -0.2051572E-02 -0.4358618E-04 -0.5305825E-04
  0.8874224E+02 -0.1012957E-03 -0.3093555E-02 -0.1348518E+00 -0.2051586E-02 -0.4358578E-04 -0.5305816E-04
  0.8924224E+02 -0.1012955E-03 -0.3079850E-02 -0.1410769E+00 -0.2051600E-02 -0.4358539E-04 -0.5305807E-04
  0.8974224E+02 -0.1012954E-03 -0.3066051E-02 -0.1474595E+00 -0.2051614E-02 -0.4358500E-04 -0.5305799E-04
  0.9024224E+02 -0.1012952E-03 -0.3052164E-02 -0.1539927E+00 -0.2051628E-02 -0.4358461E-04 -0.5305791E-04
  0.9074224E+02 -0.1012951E-03 -0.3038190E-02 -0.1606686E+00 -0.2051643E-02 -0.4358422E-04 -0.5305782E-04
  0.9124224E+02 -0.1012949E-03 -0.3024136E-02 -0.1674793E+00 -0.2051657E-02 -0.4358383E-04 -0.5305774E-04
  0.9174224E+02 -0.1012948E-03 -0.3010005E-02 -0.1744159E+00 -0.2051671E-02 -0.4358345E-04 -0.5305767E-04
  0.9224224E+02 -0.1012946E-03 -0.2995803E-02 -0.1814694E+00 -0.2051686E-02 -0.4358306E-04 -0.5305759E-04
  0.9274224E+02 -0.1012945E-03 -0.2981535E-02 -0.1886305E+00 -0.2051701E-02 -0.4358268E-04 -0.5305751E-04
  0.9324224E+02 -0.1012943E-03 -0.2967208E-02 -0.1958893E+00 -0.2051715E-02 -0.4358230E-04 -0.5305744E-04
  0.9374224E+02 -0.1012942E-03 -0.2952827E-02 -0.2032362E+00 -0.2051730E-02 -0.4358192E-04 -0.5305737E-04
  0.9424224E+02 -0.1012940E-03 -0.2938399E-02 -0.2106610E+00 -0.2051745E-02 -0.4358155E-04 -0.5305730E-04
  0.9474224E+02 -0.1012939E-03 -0.2923930E-02 -0.2181538E+00 -0.2051760E-02 -0.4358117E-04 -0.5305723E-04
  0.9524224E+02 -0.1012937E-03 -0.2909428E-02 -0.2257045E+00 -0.2051775E-02 -0.4358080E-04 -0.5305716E-04
  0.9574224E+02 -0.1012936E-03 -0.2894900E-02 -0.2333032E+00 -0.2051790E-02 -0.4358042E-04 -0.5305709E-04
  0.9624224E+02 -0.1012935E-03 -0.2880354E-02 -0.2409402E+00 -0.2051805E-02 -0.4358005E-04 -0.5305703E-04
  0.9674224E+02 -0.1012933E-03 -0.2865796E-02 -0.2486058E+00 -0.2051820E-02 -0.4357968E-04 -0.5305697E-04
  0.9724224E+02 -0.1012932E-03 -0.2851236E-02 -0.2562907E+00 -0.2051835E-02 -0.4357931E-04 -0.5305690E-04
  0.9774224E+02 -0.1012931E-03 -0.2836682E-02 -0.2639858E+00 -0.2051851E-02 -0.4357895E-04 -0.5305684E-04
  0.9824224E+02 -0.1012929E-03 -0.2822141E-02 -0.2716824E+00 -0.2051866E-02 -0.4357858E-04 -0.5305678E-04
  0.9874224E+02 -0.1012928E-03 -0.2807622E-02 -0.2793720E+00 -0.2051882E-02 -0.4357822E-04 -0.5305673E-04
  0.9924224E+02 -0.1012927E-03 -0.2793133E-02 -0.2870467E+00 -0.2051898E-02 -0.4357786E-04 -0.5305667E-04
  0.9974224E+02 -0.1012925E-03 -0.2778683E-02 -0.2946989E+00 -0.2051913E-02 -0.4357750E-04 -0.5305661E-04
  0.1000000E+03 -0.1013032E-03 -0.2536193E-02 -0.3004051E+00 -0.2051841E-02 -0.4352206E-04 -0.5309240E-04
  0.1005000E+03 -0.1012871E-03 -0.2856890E-02 -0.3070535E+00 -0.2051982E-02 -0.4360342E-04 -0.5303930E-04
  0.1010000E+03 -0.1012921E-03 -0.2750099E-02 -0.3138466E+00 -0.2051955E-02 -0.4357800E-04 -0.5305564E-04
  0.1015000E+03 -0.1012921E-03 -0.2731245E-02 -0.3212799E+00 -0.2051969E-02 -0.4357648E-04 -0.5305629E-04
  0.1020000E+03 -0.1012920E-03 -0.2715702E-02 -0.3287370E+00 -0.2051986E-02 -0.4357598E-04 -0.5305632E-04
  0.1025000E+03 -0.1012919E-03 -0.2701124E-02 -0.3361457E+00 -0.2052002E-02 -0.4357559E-04 -0.5305629E-04
  0.1030000E+03 -0.1012917E-03 -0.2686896E-02 -0.3434934E+00 -0.2052018E-02 -0.4357522E-04 -0.5305626E-04
  0.1035000E+03 -0.1012916E-03 -0.2672875E-02 -0.3507747E+00 -0.2052035E-02 -0.4357485E-04 -0.5305622E-04
  0.1040000E+03 -0.1012915E-03 -0.2659014E-02 -0.3579855E+00 -0.2052051E-02 -0.4357450E-04 -0.5305617E-04
  0.1045000E+03 -0.1012914E-03 -0.2645298E-02 -0.3651220E+00 -0.2052068E-02 -0.4357414E-04 -0.5305613E-04
  0.1050000E+03 -0.1012913E-03 -0.2631723E-02 -0.3721809E+00 -0.2052084E-02 -0.4357379E-04 -0.5305609E-04
  0.1055000E+03 -0.1012912E-03 -0.2618289E-02 -0.3791592E+00 -0.2052101E-02 -0.4357344E-04 -0.5305605E-04
  0.1060000E+03 -0.1012910E-03 -0.2605001E-02 -0.3860543E+00 -0.2052118E-02 -0.4357309E-04 -0.5305601E-04
  0.1065000E+03 -0.1012909E-03 -0.2591863E-02 -0.3928638E+00 -0.2052135E-02 -0.4357275E-04 -0.5305597E-04
  0.1070000E+03 -0.1012908E-03 -0.2578882E-02 -0.3995858E+00 -0.2052152E-02 -0.4357240E-04 -0.5305593E-04
  0.1075000E+03 -0.1012907E-03 -0.2566062E-02 -0.4062185E+00 -0.2052169E-02 -0.4357206E-04 -0.5305589E-04