title = "dataset raoult"
variables = "time","pce(r)","mtbe(r)","pentan(r)","iso-oktan(r)","toluol(r)","1,3,5-tmb(r)","porosity"
zone t = "phi_i, volume =    35", f=point
  0.0000000E+00  0.2500000E+00  0.1250000E+00  0.1250000E+00  0.5000000E-01  0.2500000E+00  0.2000000E+00  0.0000000E+00
  0.1000000E-06  0.2499998E+00  0.1249999E+00  0.1249999E+00  0.5000000E-01  0.2499987E+00  0.1999999E+00  0.1766714E-05
  0.2000000E-06  0.2499996E+00  0.1249999E+00  0.1249999E+00  0.4999999E-01  0.2499975E+00  0.1999998E+00  0.3428603E-05
  0.3558387E-06  0.2499993E+00  0.1249998E+00  0.1249998E+00  0.4999999E-01  0.2499957E+00  0.1999997E+00  0.5789175E-05
  0.5830108E-06  0.2499989E+00  0.1249996E+00  0.1249996E+00  0.4999998E-01  0.2499936E+00  0.1999995E+00  0.8810331E-05
  0.9141681E-06  0.2499983E+00  0.1249994E+00  0.1249994E+00  0.4999997E-01  0.2499911E+00  0.1999993E+00  0.1249055E-04
  0.1396909E-05  0.2499977E+00  0.1249990E+00  0.1249990E+00  0.4999996E-01  0.2499884E+00  0.1999991E+00  0.1670538E-04
  0.2100618E-05  0.2499970E+00  0.1249986E+00  0.1249985E+00  0.4999994E-01  0.2499858E+00  0.1999989E+00  0.2120739E-04
  0.3126442E-05  0.2499963E+00  0.1249979E+00  0.1249978E+00  0.4999991E-01  0.2499836E+00  0.1999987E+00  0.2572077E-04
  0.4536302E-05  0.2499957E+00  0.1249969E+00  0.1249969E+00  0.4999988E-01  0.2499821E+00  0.1999986E+00  0.2993615E-04
  0.6591508E-05  0.2499952E+00  0.1249955E+00  0.1249955E+00  0.4999983E-01  0.2499812E+00  0.1999985E+00  0.3427402E-04
  0.9587461E-05  0.2499948E+00  0.1249935E+00  0.1249936E+00  0.4999976E-01  0.2499806E+00  0.1999985E+00  0.3924098E-04
  0.1349370E-04  0.2499946E+00  0.1249909E+00  0.1249912E+00  0.4999968E-01  0.2499803E+00  0.1999984E+00  0.4496598E-04
  0.1886232E-04  0.2499944E+00  0.1249874E+00  0.1249880E+00  0.4999958E-01  0.2499800E+00  0.1999984E+00  0.5235139E-04
  0.2624078E-04  0.2499942E+00  0.1249825E+00  0.1249838E+00  0.4999947E-01  0.2499795E+00  0.1999984E+00  0.6206602E-04
  0.3586112E-04  0.2499940E+00  0.1249763E+00  0.1249788E+00  0.4999935E-01  0.2499790E+00  0.1999983E+00  0.7420633E-04
  0.4908301E-04  0.2499938E+00  0.1249679E+00  0.1249724E+00  0.4999921E-01  0.2499783E+00  0.1999983E+00  0.9007614E-04
  0.6551997E-04  0.2499935E+00  0.1249577E+00  0.1249653E+00  0.4999908E-01  0.2499775E+00  0.1999982E+00  0.1087489E-03
  0.8695115E-04  0.2499931E+00  0.1249448E+00  0.1249570E+00  0.4999894E-01  0.2499764E+00  0.1999981E+00  0.1316247E-03
  0.1148940E-03  0.2499926E+00  0.1249286E+00  0.1249474E+00  0.4999880E-01  0.2499751E+00  0.1999980E+00  0.1594578E-03
  0.1496315E-03  0.2499920E+00  0.1249094E+00  0.1249370E+00  0.4999864E-01  0.2499735E+00  0.1999979E+00  0.1916366E-03
  0.1928159E-03  0.2499914E+00  0.1248868E+00  0.1249254E+00  0.4999848E-01  0.2499715E+00  0.1999977E+00  0.2287147E-03
  0.2465011E-03  0.2499906E+00  0.1248604E+00  0.1249126E+00  0.4999829E-01  0.2499693E+00  0.1999975E+00  0.2712717E-03
  0.3132406E-03  0.2499897E+00  0.1248300E+00  0.1248983E+00  0.4999808E-01  0.2499667E+00  0.1999973E+00  0.3198750E-03
  0.3926765E-03  0.2499887E+00  0.1247968E+00  0.1248829E+00  0.4999786E-01  0.2499637E+00  0.1999970E+00  0.3728698E-03
  0.4914283E-03  0.2499876E+00  0.1247594E+00  0.1248655E+00  0.4999760E-01  0.2499604E+00  0.1999968E+00  0.4327944E-03
  0.6089664E-03  0.2499864E+00  0.1247191E+00  0.1248466E+00  0.4999733E-01  0.2499567E+00  0.1999964E+00  0.4974430E-03
  0.7488648E-03  0.2499851E+00  0.1246762E+00  0.1248260E+00  0.4999703E-01  0.2499526E+00  0.1999961E+00  0.5669956E-03
  0.9153771E-03  0.2499836E+00  0.1246304E+00  0.1248036E+00  0.4999671E-01  0.2499482E+00  0.1999957E+00  0.6417220E-03
  0.1113566E-02  0.2499821E+00  0.1245815E+00  0.1247793E+00  0.4999636E-01  0.2499434E+00  0.1999953E+00  0.7220379E-03
  0.1349459E-02  0.2499804E+00  0.1245292E+00  0.1247529E+00  0.4999598E-01  0.2499381E+00  0.1999949E+00  0.8085393E-03
  0.1630227E-02  0.2499785E+00  0.1244727E+00  0.1247243E+00  0.4999558E-01  0.2499324E+00  0.1999944E+00  0.9020059E-03
  0.1964408E-02  0.2499766E+00  0.1244114E+00  0.1246934E+00  0.4999514E-01  0.2499262E+00  0.1999939E+00  0.1003369E-02
  0.2362163E-02  0.2499744E+00  0.1243444E+00  0.1246601E+00  0.4999468E-01  0.2499194E+00  0.1999934E+00  0.1113650E-02
  0.2835586E-02  0.2499721E+00  0.1242707E+00  0.1246242E+00  0.4999418E-01  0.2499121E+00  0.1999928E+00  0.1233896E-02
  0.3399072E-02  0.2499696E+00  0.1241896E+00  0.1245858E+00  0.4999365E-01  0.2499042E+00  0.1999921E+00  0.1365121E-02
  0.4069755E-02  0.2499669E+00  0.1241001E+00  0.1245447E+00  0.4999308E-01  0.2498956E+00  0.1999914E+00  0.1508271E-02
  0.4868027E-02  0.2499640E+00  0.1240014E+00  0.1245010E+00  0.4999248E-01  0.2498863E+00  0.1999906E+00  0.1664234E-02
  0.5818161E-02  0.2499609E+00  0.1238927E+00  0.1244546E+00  0.4999185E-01  0.2498762E+00  0.1999898E+00  0.1833855E-02
  0.6949047E-02  0.2499576E+00  0.1237732E+00  0.1244057E+00  0.4999118E-01  0.2498654E+00  0.1999889E+00  0.2017975E-02
  0.8295070E-02  0.2499541E+00  0.1236420E+00  0.1243543E+00  0.4999049E-01  0.2498537E+00  0.1999880E+00  0.2217471E-02
  0.9968396E-02  0.2499501E+00  0.1234922E+00  0.1242982E+00  0.4998973E-01  0.2498406E+00  0.1999869E+00  0.2442113E-02
  0.1204861E-01  0.2499458E+00  0.1233220E+00  0.1242375E+00  0.4998891E-01  0.2498261E+00  0.1999857E+00  0.2693947E-02
  0.1476089E-01  0.2499408E+00  0.1231207E+00  0.1241691E+00  0.4998798E-01  0.2498093E+00  0.1999844E+00  0.2987747E-02
  0.1829725E-01  0.2499352E+00  0.1228843E+00  0.1240924E+00  0.4998694E-01  0.2497901E+00  0.1999828E+00  0.3328198E-02
  0.2315753E-01  0.2499286E+00  0.1225952E+00  0.1240024E+00  0.4998571E-01  0.2497673E+00  0.1999810E+00  0.3739700E-02
  0.2983734E-01  0.2499209E+00  0.1222459E+00  0.1238967E+00  0.4998425E-01  0.2497407E+00  0.1999788E+00  0.4232697E-02
  0.3854674E-01  0.2499124E+00  0.1218480E+00  0.1237770E+00  0.4998259E-01  0.2497112E+00  0.1999765E+00  0.4792349E-02
  0.4990242E-01  0.2499028E+00  0.1213973E+00  0.1236387E+00  0.4998066E-01  0.2496787E+00  0.1999738E+00  0.5428083E-02
  0.6470841E-01  0.2498919E+00  0.1208899E+00  0.1234746E+00  0.4997835E-01  0.2496424E+00  0.1999709E+00  0.6151934E-02
  0.8401306E-01  0.2498792E+00  0.1203223E+00  0.1232746E+00  0.4997552E-01  0.2496012E+00  0.1999675E+00  0.6979547E-02
  0.1080119E+00  0.2498646E+00  0.1197177E+00  0.1230358E+00  0.4997212E-01  0.2495556E+00  0.1999638E+00  0.7890386E-02
  0.1393025E+00  0.2498466E+00  0.1190462E+00  0.1227313E+00  0.4996777E-01  0.2495012E+00  0.1999593E+00  0.8947721E-02
  0.1782019E+00  0.2498249E+00  0.1183358E+00  0.1223568E+00  0.4996240E-01  0.2494377E+00  0.1999539E+00  0.1012847E-01
  0.2289205E+00  0.2497970E+00  0.1175498E+00  0.1218713E+00  0.4995542E-01  0.2493585E+00  0.1999472E+00  0.1152073E-01
  0.2892877E+00  0.2497641E+00  0.1167475E+00  0.1212958E+00  0.4994710E-01  0.2492666E+00  0.1999394E+00  0.1303945E-01
  0.3679968E+00  0.2497213E+00  0.1158412E+00  0.1205481E+00  0.4993625E-01  0.2491488E+00  0.1999293E+00  0.1487511E-01
  0.4616795E+00  0.2496704E+00  0.1148866E+00  0.1196624E+00  0.4992331E-01  0.2490097E+00  0.1999174E+00  0.1693020E-01
  0.5781423E+00  0.2496072E+00  0.1138120E+00  0.1185673E+00  0.4990721E-01  0.2488376E+00  0.1999026E+00  0.1936614E-01
  0.7229246E+00  0.2495286E+00  0.1125787E+00  0.1172151E+00  0.4988714E-01  0.2486241E+00  0.1998842E+00  0.2228209E-01
  0.8952500E+00  0.2494351E+00  0.1112011E+00  0.1156198E+00  0.4986320E-01  0.2483702E+00  0.1998624E+00  0.2564817E-01
  0.1100358E+01  0.2493236E+00  0.1096430E+00  0.1137406E+00  0.4983462E-01  0.2480682E+00  0.1998363E+00  0.2955374E-01
  0.1344486E+01  0.2491905E+00  0.1078664E+00  0.1115317E+00  0.4980048E-01  0.2477084E+00  0.1998052E+00  0.3409727E-01
  0.1635056E+01  0.2490317E+00  0.1058299E+00  0.1089417E+00  0.4975969E-01  0.2472796E+00  0.1997681E+00  0.3938923E-01
  0.1980903E+01  0.2488419E+00  0.1034871E+00  0.1059144E+00  0.4971092E-01  0.2467683E+00  0.1997238E+00  0.4555369E-01
  0.2392544E+01  0.2486147E+00  0.1007865E+00  0.1023890E+00  0.4965256E-01  0.2461578E+00  0.1996708E+00  0.5272860E-01
  0.2882495E+01  0.2483428E+00  0.9767208E-01  0.9830244E-01  0.4958264E-01  0.2454284E+00  0.1996073E+00  0.6106440E-01
  0.3382495E+01  0.2480630E+00  0.9461018E-01  0.9426703E-01  0.4951076E-01  0.2446800E+00  0.1995419E+00  0.6932704E-01
  0.3882495E+01  0.2477812E+00  0.9164425E-01  0.9036398E-01  0.4943834E-01  0.2439278E+00  0.1994761E+00  0.7736836E-01
  0.4382495E+01  0.2474973E+00  0.8876427E-01  0.8659039E-01  0.4936539E-01  0.2431718E+00  0.1994097E+00  0.8520120E-01
  0.4882495E+01  0.2472114E+00  0.8596518E-01  0.8294384E-01  0.4929194E-01  0.2424120E+00  0.1993427E+00  0.9283294E-01
  0.5382495E+01  0.2469234E+00  0.8324349E-01  0.7942186E-01  0.4921798E-01  0.2416485E+00  0.1992753E+00  0.1002695E+00
  0.5882495E+01  0.2466335E+00  0.8059652E-01  0.7602191E-01  0.4914352E-01  0.2408814E+00  0.1992074E+00  0.1075159E+00
  0.6382495E+01  0.2463415E+00  0.7802204E-01  0.7274143E-01  0.4906857E-01  0.2401107E+00  0.1991389E+00  0.1145768E+00
  0.6882495E+01  0.2460476E+00  0.7551813E-01  0.6957779E-01  0.4899315E-01  0.2393366E+00  0.1990699E+00  0.1214568E+00
  0.7382495E+01  0.2457518E+00  0.7308305E-01  0.6652833E-01  0.4891725E-01  0.2385592E+00  0.1990004E+00  0.1281599E+00
  0.7882495E+01  0.2454542E+00  0.7071522E-01  0.6359039E-01  0.4884088E-01  0.2377785E+00  0.1989305E+00  0.1346904E+00
  0.8382495E+01  0.2451546E+00  0.6841315E-01  0.6076124E-01  0.4876407E-01  0.2369946E+00  0.1988600E+00  0.1410524E+00
  0.8882495E+01  0.2448533E+00  0.6617540E-01  0.5803818E-01  0.4868680E-01  0.2362077E+00  0.1987890E+00  0.1472497E+00
  0.9382495E+01  0.2445501E+00  0.6400063E-01  0.5541847E-01  0.4860910E-01  0.2354178E+00  0.1987176E+00  0.1532863E+00
  0.9882495E+01  0.2442452E+00  0.6188748E-01  0.5289937E-01  0.4853097E-01  0.2346251E+00  0.1986457E+00  0.1591662E+00
  0.1038249E+02  0.2439385E+00  0.5983467E-01  0.5047816E-01  0.4845242E-01  0.2338296E+00  0.1985733E+00  0.1648933E+00
  0.1088249E+02  0.2436302E+00  0.5784093E-01  0.4815209E-01  0.4837346E-01  0.2330316E+00  0.1985005E+00  0.1704713E+00
  0.1138249E+02  0.2433202E+00  0.5590499E-01  0.4591844E-01  0.4829410E-01  0.2322310E+00  0.1984272E+00  0.1759041E+00
  0.1188249E+02  0.2430086E+00  0.5402563E-01  0.4377451E-01  0.4821435E-01  0.2314280E+00  0.1983534E+00  0.1811956E+00
  0.1238249E+02  0.2426953E+00  0.5220161E-01  0.4171760E-01  0.4813421E-01  0.2306227E+00  0.1982792E+00  0.1863494E+00
  0.1288249E+02  0.2423805E+00  0.5043172E-01  0.3974504E-01  0.4805370E-01  0.2298152E+00  0.1982046E+00  0.1913692E+00
  0.1338249E+02  0.2420642E+00  0.4871475E-01  0.3785420E-01  0.4797283E-01  0.2290056E+00  0.1981296E+00  0.1962589E+00
  0.1388249E+02  0.2417463E+00  0.4704953E-01  0.3604245E-01  0.4789160E-01  0.2281941E+00  0.1980541E+00  0.2010219E+00
  0.1438249E+02  0.2414270E+00  0.4543485E-01  0.3430723E-01  0.4781002E-01  0.2273807E+00  0.1979782E+00  0.2056620E+00
  0.1488249E+02  0.2411063E+00  0.4386955E-01  0.3264597E-01  0.4772811E-01  0.2265655E+00  0.1979019E+00  0.2101827E+00
  0.1538249E+02  0.2407842E+00  0.4235247E-01  0.3105618E-01  0.4764586E-01  0.2257486E+00  0.1978252E+00  0.2145875E+00
  0.1588249E+02  0.2404607E+00  0.4088244E-01  0.2953539E-01  0.4756329E-01  0.2249302E+00  0.1977481E+00  0.2188799E+00
  0.1638249E+02  0.2401358E+00  0.3945833E-01  0.2808117E-01  0.4748042E-01  0.2241104E+00  0.1976706E+00  0.2230633E+00
  0.1688249E+02  0.2398097E+00  0.3807901E-01  0.2669117E-01  0.4739724E-01  0.2232891E+00  0.1975927E+00  0.2271411E+00
  0.1738249E+02  0.2394823E+00  0.3674335E-01  0.2536303E-01  0.4731376E-01  0.2224667E+00  0.1975144E+00  0.2311165E+00
  0.1788249E+02  0.2391536E+00  0.3545024E-01  0.2409450E-01  0.4723000E-01  0.2216430E+00  0.1974358E+00  0.2349928E+00
  0.1838249E+02  0.2388237E+00  0.3419859E-01  0.2288334E-01  0.4714596E-01  0.2208183E+00  0.1973568E+00  0.2387733E+00
  0.1888249E+02  0.2384927E+00  0.3298732E-01  0.2172737E-01  0.4706165E-01  0.2199926E+00  0.1972775E+00  0.2424609E+00
  0.1938249E+02  0.2381605E+00  0.3181535E-01  0.2062448E-01  0.4697708E-01  0.2191660E+00  0.1971978E+00  0.2460588E+00
  0.1988249E+02  0.2378271E+00  0.3068164E-01  0.1957259E-01  0.4689225E-01  0.2183387E+00  0.1971177E+00  0.2495700E+00
  0.2038249E+02  0.2374927E+00  0.2958515E-01  0.1856969E-01  0.4680718E-01  0.2175106E+00  0.1970373E+00  0.2529974E+00
  0.2088249E+02  0.2371572E+00  0.2852486E-01  0.1761383E-01  0.4672187E-01  0.2166819E+00  0.1969566E+00  0.2563438E+00
  0.2138249E+02  0.2368207E+00  0.2749975E-01  0.1670310E-01  0.4663632E-01  0.2158526E+00  0.1968755E+00  0.2596120E+00
  0.2188249E+02  0.2364831E+00  0.2650884E-01  0.1583565E-01  0.4655055E-01  0.2150229E+00  0.1967941E+00  0.2628047E+00
  0.2238249E+02  0.2361446E+00  0.2555115E-01  0.1500970E-01  0.4646457E-01  0.2141929E+00  0.1967124E+00  0.2659247E+00
  0.2288249E+02  0.2358051E+00  0.2462574E-01  0.1422349E-01  0.4637837E-01  0.2133625E+00  0.1966304E+00  0.2689744E+00
  0.2338249E+02  0.2354646E+00  0.2373166E-01  0.1347536E-01  0.4629197E-01  0.2125319E+00  0.1965481E+00  0.2719564E+00
  0.2388249E+02  0.2351233E+00  0.2286799E-01  0.1276367E-01  0.4620537E-01  0.2117011E+00  0.1964655E+00  0.2748731E+00
  0.2438249E+02  0.2347810E+00  0.2203383E-01  0.1208686E-01  0.4611859E-01  0.2108703E+00  0.1963825E+00  0.2777268E+00
  0.2488249E+02  0.2344379E+00  0.2122831E-01  0.1144340E-01  0.4603161E-01  0.2100395E+00  0.1962993E+00  0.2805200E+00
  0.2538249E+02  0.2340940E+00  0.2045055E-01  0.1083182E-01  0.4594446E-01  0.2092087E+00  0.1962158E+00  0.2832547E+00
  0.2588249E+02  0.2337492E+00  0.1969972E-01  0.1025071E-01  0.4585714E-01  0.2083780E+00  0.1961320E+00  0.2859332E+00
  0.2638249E+02  0.2334036E+00  0.1897497E-01  0.9698708E-02  0.4576965E-01  0.2075475E+00  0.1960479E+00  0.2885576E+00
  0.2688249E+02  0.2330573E+00  0.1827552E-01  0.9174495E-02  0.4568199E-01  0.2067173E+00  0.1959636E+00  0.2911299E+00
  0.2738249E+02  0.2327102E+00  0.1760056E-01  0.8676808E-02  0.4559419E-01  0.2058873E+00  0.1958789E+00  0.2936520E+00
  0.2788249E+02  0.2323623E+00  0.1694932E-01  0.8204430E-02  0.4550623E-01  0.2050577E+00  0.1957940E+00  0.2961259E+00
  0.2838249E+02  0.2320137E+00  0.1632107E-01  0.7756189E-02  0.4541812E-01  0.2042286E+00  0.1957089E+00  0.2985534E+00
  0.2888249E+02  0.2316645E+00  0.1571506E-01  0.7330962E-02  0.4532988E-01  0.2033999E+00  0.1956235E+00  0.3009363E+00
  0.2938249E+02  0.2313145E+00  0.1513057E-01  0.6927668E-02  0.4524150E-01  0.2025717E+00  0.1955378E+00  0.3032763E+00
  0.2988249E+02  0.2309639E+00  0.1456692E-01  0.6545271E-02  0.4515299E-01  0.2017441E+00  0.1954518E+00  0.3055750E+00
  0.3038249E+02  0.2306126E+00  0.1402343E-01  0.6182776E-02  0.4506435E-01  0.2009172E+00  0.1953656E+00  0.3078340E+00
  0.3088249E+02  0.2302607E+00  0.1349943E-01  0.5839231E-02  0.4497559E-01  0.2000909E+00  0.1952792E+00  0.3100550E+00
  0.3138249E+02  0.2299082E+00  0.1299428E-01  0.5513721E-02  0.4488672E-01  0.1992653E+00  0.1951925E+00  0.3122393E+00
  0.3188249E+02  0.2295551E+00  0.1250736E-01  0.5205372E-02  0.4479773E-01  0.1984405E+00  0.1951056E+00  0.3143884E+00
  0.3238249E+02  0.2292013E+00  0.1203807E-01  0.4913346E-02  0.4470862E-01  0.1976164E+00  0.1950184E+00  0.3165038E+00
  0.3288249E+02  0.2288470E+00  0.1158581E-01  0.4636841E-02  0.4461942E-01  0.1967933E+00  0.1949310E+00  0.3185866E+00
  0.3338249E+02  0.2284922E+00  0.1115000E-01  0.4375092E-02  0.4453011E-01  0.1959710E+00  0.1948434E+00  0.3206382E+00
  0.3388249E+02  0.2281368E+00  0.1073010E-01  0.4127365E-02  0.4444070E-01  0.1951496E+00  0.1947555E+00  0.3226599E+00
  0.3438249E+02  0.2277809E+00  0.1032556E-01  0.3892959E-02  0.4435120E-01  0.1943292E+00  0.1946674E+00  0.3246528E+00
  0.3488249E+02  0.2274244E+00  0.9935852E-02  0.3671207E-02  0.4426161E-01  0.1935097E+00  0.1945791E+00  0.3266181E+00
  0.3538249E+02  0.2270674E+00  0.9560475E-02  0.3461470E-02  0.4417193E-01  0.1926913E+00  0.1944906E+00  0.3285568E+00
  0.3588249E+02  0.2267100E+00  0.9198931E-02  0.3263137E-02  0.4408216E-01  0.1918740E+00  0.1944018E+00  0.3304700E+00
  0.3638249E+02  0.2263520E+00  0.8850743E-02  0.3075629E-02  0.4399231E-01  0.1910578E+00  0.1943128E+00  0.3323587E+00
  0.3688249E+02  0.2259936E+00  0.8515446E-02  0.2898390E-02  0.4390239E-01  0.1902426E+00  0.1942236E+00  0.3342239E+00
  0.3738249E+02  0.2256347E+00  0.8192590E-02  0.2730891E-02  0.4381238E-01  0.1894286E+00  0.1941342E+00  0.3360666E+00
  0.3788249E+02  0.2252754E+00  0.7881738E-02  0.2572630E-02  0.4372230E-01  0.1886158E+00  0.1940446E+00  0.3378875E+00
  0.3838249E+02  0.2249156E+00  0.7582471E-02  0.2423126E-02  0.4363215E-01  0.1878043E+00  0.1939547E+00  0.3396877E+00
  0.3888249E+02  0.2245553E+00  0.7294377E-02  0.2281923E-02  0.4354194E-01  0.1869939E+00  0.1938647E+00  0.3414679E+00
  0.3938249E+02  0.2241947E+00  0.7017062E-02  0.2148584E-02  0.4345165E-01  0.1861848E+00  0.1937744E+00  0.3432288E+00
  0.3988249E+02  0.2238336E+00  0.6750142E-02  0.2022698E-02  0.4336130E-01  0.1853770E+00  0.1936839E+00  0.3449714E+00
  0.4038249E+02  0.2234721E+00  0.6493247E-02  0.1903869E-02  0.4327090E-01  0.1845704E+00  0.1935933E+00  0.3466962E+00
  0.4088249E+02  0.2231102E+00  0.6246018E-02  0.1791723E-02  0.4318043E-01  0.1837653E+00  0.1935024E+00  0.3484040E+00
  0.4138249E+02  0.2227479E+00  0.6008108E-02  0.1685905E-02  0.4308990E-01  0.1829614E+00  0.1934113E+00  0.3500955E+00
  0.4188249E+02  0.2223852E+00  0.5779181E-02  0.1586075E-02  0.4299932E-01  0.1821589E+00  0.1933200E+00  0.3517712E+00
  0.4238249E+02  0.2220222E+00  0.5558913E-02  0.1491912E-02  0.4290869E-01  0.1813579E+00  0.1932285E+00  0.3534319E+00
  0.4288249E+02  0.2216587E+00  0.5346991E-02  0.1403111E-02  0.4281801E-01  0.1805582E+00  0.1931368E+00  0.3550782E+00
  0.4338249E+02  0.2212949E+00  0.5143111E-02  0.1319382E-02  0.4272727E-01  0.1797599E+00  0.1930449E+00  0.3567104E+00
  0.4388249E+02  0.2209308E+00  0.4946980E-02  0.1240449E-02  0.4263649E-01  0.1789632E+00  0.1929528E+00  0.3583293E+00
  0.4438249E+02  0.2205662E+00  0.4758315E-02  0.1166051E-02  0.4254567E-01  0.1781678E+00  0.1928606E+00  0.3599354E+00
  0.4488249E+02  0.2202014E+00  0.4576843E-02  0.1095939E-02  0.4245480E-01  0.1773740E+00  0.1927681E+00  0.3615290E+00
  0.4538249E+02  0.2198362E+00  0.4402300E-02  0.1029880E-02  0.4236389E-01  0.1765816E+00  0.1926754E+00  0.3631108E+00
  0.4588249E+02  0.2194706E+00  0.4234430E-02  0.9676481E-03  0.4227293E-01  0.1757908E+00  0.1925825E+00  0.3646811E+00
  0.4638249E+02  0.2191047E+00  0.4072988E-02  0.9090335E-03  0.4218194E-01  0.1750014E+00  0.1924894E+00  0.3662404E+00
  0.4688249E+02  0.2187385E+00  0.3917735E-02  0.8538351E-03  0.4209091E-01  0.1742136E+00  0.1923962E+00  0.3677892E+00
  0.4738249E+02  0.2183720E+00  0.3768442E-02  0.8018629E-03  0.4199984E-01  0.1734274E+00  0.1923027E+00  0.3693277E+00
  0.4788249E+02  0.2180051E+00  0.3624888E-02  0.7529367E-03  0.4190874E-01  0.1726427E+00  0.1922091E+00  0.3708565E+00
  0.4838249E+02  0.2176379E+00  0.3486858E-02  0.7068861E-03  0.4181761E-01  0.1718597E+00  0.1921152E+00  0.3723758E+00
  0.4888249E+02  0.2172705E+00  0.3354147E-02  0.6635494E-03  0.4172644E-01  0.1710782E+00  0.1920212E+00  0.3738860E+00
  0.4938249E+02  0.2169027E+00  0.3226555E-02  0.6227736E-03  0.4163524E-01  0.1702983E+00  0.1919270E+00  0.3753875E+00
  0.4988249E+02  0.2165346E+00  0.3103891E-02  0.5844141E-03  0.4154401E-01  0.1695200E+00  0.1918326E+00  0.3768805E+00
  0.5000000E+02  0.2164480E+00  0.3080931E-02  0.5762451E-03  0.4152256E-01  0.1693379E+00  0.1918103E+00  0.3772241E+00
  0.5024224E+02  0.2162695E+00  0.3024527E-02  0.5589152E-03  0.4147834E-01  0.1689618E+00  0.1917645E+00  0.3779425E+00
  0.5074224E+02  0.2159009E+00  0.2905395E-02  0.5241286E-03  0.4138707E-01  0.1681859E+00  0.1916698E+00  0.3794268E+00
  0.5124224E+02  0.2155321E+00  0.2794745E-02  0.4916398E-03  0.4129576E-01  0.1674121E+00  0.1915748E+00  0.3808989E+00
  0.5174224E+02  0.2151629E+00  0.2688660E-02  0.4610975E-03  0.4120443E-01  0.1666399E+00  0.1914797E+00  0.3823633E+00
  0.5224224E+02  0.2147934E+00  0.2586766E-02  0.4323882E-03  0.4111308E-01  0.1658694E+00  0.1913844E+00  0.3838205E+00
  0.5274224E+02  0.2144237E+00  0.2488858E-02  0.4054061E-03  0.4102170E-01  0.1651005E+00  0.1912889E+00  0.3852709E+00
  0.5324224E+02  0.2140537E+00  0.2394768E-02  0.3800517E-03  0.4093029E-01  0.1643334E+00  0.1911932E+00  0.3867146E+00
  0.5374224E+02  0.2136834E+00  0.2304347E-02  0.3562307E-03  0.4083887E-01  0.1635679E+00  0.1910974E+00  0.3881519E+00
  0.5424224E+02  0.2133129E+00  0.2217450E-02  0.3338542E-03  0.4074742E-01  0.1628041E+00  0.1910013E+00  0.3895830E+00
  0.5474224E+02  0.2129420E+00  0.2133943E-02  0.3128381E-03  0.4065595E-01  0.1620420E+00  0.1909051E+00  0.3910081E+00
  0.5524224E+02  0.2125709E+00  0.2053694E-02  0.2931029E-03  0.4056447E-01  0.1612817E+00  0.1908086E+00  0.3924275E+00
  0.5574224E+02  0.2121996E+00  0.1976579E-02  0.2745738E-03  0.4047296E-01  0.1605230E+00  0.1907120E+00  0.3938412E+00
  0.5624224E+02  0.2118280E+00  0.1902477E-02  0.2571798E-03  0.4038144E-01  0.1597661E+00  0.1906152E+00  0.3952496E+00
  0.5674224E+02  0.2114561E+00  0.1831271E-02  0.2408542E-03  0.4028990E-01  0.1590109E+00  0.1905182E+00  0.3966527E+00
  0.5724224E+02  0.2110840E+00  0.1762850E-02  0.2255339E-03  0.4019835E-01  0.1582575E+00  0.1904210E+00  0.3980507E+00
  0.5774224E+02  0.2107116E+00  0.1697107E-02  0.2111594E-03  0.4010677E-01  0.1575058E+00  0.1903237E+00  0.3994439E+00
  0.5824224E+02  0.2103390E+00  0.1633937E-02  0.1976746E-03  0.4001519E-01  0.1567559E+00  0.1902261E+00  0.4008322E+00
  0.5874224E+02  0.2099661E+00  0.1573242E-02  0.1850265E-03  0.3992359E-01  0.1560077E+00  0.1901284E+00  0.4022159E+00
  0.5924224E+02  0.2095930E+00  0.1514926E-02  0.1731651E-03  0.3983197E-01  0.1552613E+00  0.1900304E+00  0.4035952E+00
  0.5974224E+02  0.2092196E+00  0.1458896E-02  0.1620434E-03  0.3974035E-01  0.1545167E+00  0.1899323E+00  0.4049701E+00
  0.6024224E+02  0.2088460E+00  0.1405063E-02  0.1516169E-03  0.3964871E-01  0.1537738E+00  0.1898340E+00  0.4063408E+00
  0.6074224E+02  0.2084722E+00  0.1353342E-02  0.1418439E-03  0.3955706E-01  0.1530327E+00  0.1897355E+00  0.4077073E+00
  0.6124224E+02  0.2080981E+00  0.1303650E-02  0.1326850E-03  0.3946540E-01  0.1522934E+00  0.1896368E+00  0.4090699E+00
  0.6174224E+02  0.2077238E+00  0.1255909E-02  0.1241029E-03  0.3937373E-01  0.1515559E+00  0.1895379E+00  0.4104286E+00
  0.6224224E+02  0.2073492E+00  0.1210042E-02  0.1160626E-03  0.3928205E-01  0.1508202E+00  0.1894389E+00  0.4117835E+00
  0.6274224E+02  0.2069744E+00  0.1165975E-02  0.1085313E-03  0.3919036E-01  0.1500863E+00  0.1893396E+00  0.4131347E+00
  0.6324224E+02  0.2065994E+00  0.1123639E-02  0.1014779E-03  0.3909866E-01  0.1493542E+00  0.1892402E+00  0.4144824E+00
  0.6374224E+02  0.2062242E+00  0.1082966E-02  0.9487311E-04  0.3900695E-01  0.1486240E+00  0.1891406E+00  0.4158265E+00
  0.6424224E+02  0.2058487E+00  0.1043889E-02  0.8868948E-04  0.3891524E-01  0.1478955E+00  0.1890407E+00  0.4171672E+00
  0.6474224E+02  0.2054730E+00  0.1006347E-02  0.8290111E-04  0.3882352E-01  0.1471688E+00  0.1889407E+00  0.4185047E+00
  0.6524224E+02  0.2050971E+00  0.9702781E-03  0.7748364E-04  0.3873179E-01  0.1464440E+00  0.1888405E+00  0.4198388E+00
  0.6574224E+02  0.2047209E+00  0.9356256E-03  0.7241414E-04  0.3864006E-01  0.1457210E+00  0.1887402E+00  0.4211698E+00
  0.6624224E+02  0.2043445E+00  0.9023331E-03  0.6767105E-04  0.3854832E-01  0.1449999E+00  0.1886396E+00  0.4224977E+00
  0.6674224E+02  0.2039680E+00  0.8703469E-03  0.6323410E-04  0.3845658E-01  0.1442805E+00  0.1885388E+00  0.4238225E+00
  0.6724224E+02  0.2035911E+00  0.8396153E-03  0.5908421E-04  0.3836484E-01  0.1435630E+00  0.1884379E+00  0.4251444E+00
  0.6774224E+02  0.2032141E+00  0.8100888E-03  0.5520345E-04  0.3827309E-01  0.1428474E+00  0.1883367E+00  0.4264634E+00
  0.6824224E+02  0.2028369E+00  0.7817196E-03  0.5157497E-04  0.3818133E-01  0.1421336E+00  0.1882354E+00  0.4277795E+00
  0.6874224E+02  0.2024594E+00  0.7544617E-03  0.4818293E-04  0.3808958E-01  0.1414216E+00  0.1881338E+00  0.4290929E+00
  0.6924224E+02  0.2020817E+00  0.7282712E-03  0.4501244E-04  0.3799782E-01  0.1407115E+00  0.1880321E+00  0.4304035E+00
  0.6974224E+02  0.2017039E+00  0.7031055E-03  0.4204952E-04  0.3790606E-01  0.1400033E+00  0.1879302E+00  0.4317114E+00
  0.7024224E+02  0.2013258E+00  0.6789241E-03  0.3928102E-04  0.3781430E-01  0.1392969E+00  0.1878281E+00  0.4330167E+00
  0.7074224E+02  0.2009475E+00  0.6556876E-03  0.3669461E-04  0.3772254E-01  0.1385924E+00  0.1877258E+00  0.4343195E+00
  0.7124224E+02  0.2005689E+00  0.6333584E-03  0.3427871E-04  0.3763077E-01  0.1378897E+00  0.1876233E+00  0.4356196E+00
  0.7174224E+02  0.2001902E+00  0.6119004E-03  0.3202242E-04  0.3753901E-01  0.1371889E+00  0.1875206E+00  0.4369173E+00
  0.7224224E+02  0.1998113E+00  0.5912789E-03  0.2991555E-04  0.3744725E-01  0.1364900E+00  0.1874177E+00  0.4382125E+00
  0.7274224E+02  0.1994322E+00  0.5714604E-03  0.2794849E-04  0.3735549E-01  0.1357929E+00  0.1873146E+00  0.4395054E+00
  0.7324224E+02  0.1990528E+00  0.5524129E-03  0.2611226E-04  0.3726373E-01  0.1350978E+00  0.1872114E+00  0.4407958E+00
  0.7374224E+02  0.1986733E+00  0.5341055E-03  0.2439841E-04  0.3717197E-01  0.1344045E+00  0.1871079E+00  0.4420839E+00
  0.7424224E+02  0.1982935E+00  0.5165086E-03  0.2279903E-04  0.3708021E-01  0.1337130E+00  0.1870042E+00  0.4433696E+00
  0.7474224E+02  0.1979136E+00  0.4995938E-03  0.2130669E-04  0.3698846E-01  0.1330235E+00  0.1869004E+00  0.4446531E+00
  0.7524224E+02  0.1975335E+00  0.4833338E-03  0.1991443E-04  0.3689671E-01  0.1323359E+00  0.1867963E+00  0.4459344E+00
  0.7574224E+02  0.1971531E+00  0.4677024E-03  0.1861571E-04  0.3680496E-01  0.1316501E+00  0.1866921E+00  0.4472134E+00
  0.7624224E+02  0.1967726E+00  0.4526742E-03  0.1740441E-04  0.3671321E-01  0.1309662E+00  0.1865876E+00  0.4484903E+00
  0.7674224E+02  0.1963918E+00  0.4382252E-03  0.1627479E-04  0.3662147E-01  0.1302842E+00  0.1864830E+00  0.4497649E+00
  0.7724224E+02  0.1960109E+00  0.4243320E-03  0.1522148E-04  0.3652974E-01  0.1296042E+00  0.1863781E+00  0.4510375E+00
  0.7774224E+02  0.1956298E+00  0.4109725E-03  0.1423944E-04  0.3643801E-01  0.1289260E+00  0.1862731E+00  0.4523079E+00
  0.7824224E+02  0.1952485E+00  0.3981250E-03  0.1332394E-04  0.3634628E-01  0.1282497E+00  0.1861679E+00  0.4535762E+00
  0.7874224E+02  0.1948670E+00  0.3857691E-03  0.1247057E-04  0.3625456E-01  0.1275753E+00  0.1860624E+00  0.4548425E+00
  0.7924224E+02  0.1944853E+00  0.3738850E-03  0.1167518E-04  0.3616285E-01  0.1269028E+00  0.1859568E+00  0.4561067E+00
  0.7974224E+02  0.1941034E+00  0.3624537E-03  0.1093389E-04  0.3607114E-01  0.1262322E+00  0.1858510E+00  0.4573689E+00
  0.8024224E+02  0.1937213E+00  0.3514571E-03  0.1024308E-04  0.3597944E-01  0.1255636E+00  0.1857449E+00  0.4586291E+00
  0.8074224E+02  0.1933390E+00  0.3408775E-03  0.9599355E-05  0.3588775E-01  0.1248968E+00  0.1856387E+00  0.4598873E+00
  0.8124224E+02  0.1929565E+00  0.3306983E-03  0.8999529E-05  0.3579607E-01  0.1242319E+00  0.1855322E+00  0.4611435E+00
  0.8174224E+02  0.1925739E+00  0.3209034E-03  0.8440630E-05  0.3570439E-01  0.1235690E+00  0.1854256E+00  0.4623978E+00
  0.8224224E+02  0.1921911E+00  0.3114773E-03  0.7919877E-05  0.3561272E-01  0.1229080E+00  0.1853187E+00  0.4636501E+00
  0.8274224E+02  0.1918081E+00  0.3024051E-03  0.7434671E-05  0.3552106E-01  0.1222489E+00  0.1852117E+00  0.4649005E+00
  0.8324224E+02  0.1914249E+00  0.2936726E-03  0.6982579E-05  0.3542941E-01  0.1215917E+00  0.1851044E+00  0.4661490E+00
  0.8374224E+02  0.1910415E+00  0.2852661E-03  0.6561329E-05  0.3533777E-01  0.1209364E+00  0.1849970E+00  0.4673955E+00
  0.8424224E+02  0.1906579E+00  0.2771726E-03  0.6168798E-05  0.3524614E-01  0.1202830E+00  0.1848893E+00  0.4686402E+00
  0.8474224E+02  0.1902742E+00  0.2693794E-03  0.5803003E-05  0.3515452E-01  0.1196316E+00  0.1847815E+00  0.4698831E+00
  0.8524224E+02  0.1898902E+00  0.2618745E-03  0.5462092E-05  0.3506291E-01  0.1189821E+00  0.1846734E+00  0.4711240E+00
  0.8574224E+02  0.1895061E+00  0.2546462E-03  0.5144336E-05  0.3497131E-01  0.1183345E+00  0.1845651E+00  0.4723631E+00
  0.8624224E+02  0.1891219E+00  0.2476835E-03  0.4848122E-05  0.3487972E-01  0.1176889E+00  0.1844566E+00  0.4736004E+00
  0.8674224E+02  0.1887374E+00  0.2409757E-03  0.4571945E-05  0.3478815E-01  0.1170451E+00  0.1843479E+00  0.4748358E+00
  0.8724224E+02  0.1883528E+00  0.2345126E-03  0.4314401E-05  0.3469659E-01  0.1164034E+00  0.1842391E+00  0.4760694E+00
  0.8774224E+02  0.1879680E+00  0.2282842E-03  0.4074183E-05  0.3460504E-01  0.1157635E+00  0.1841300E+00  0.4773012E+00
  0.8824224E+02  0.1875830E+00  0.2222813E-03  0.3850071E-05  0.3451350E-01  0.1151256E+00  0.1840206E+00  0.4785312E+00
  0.8874224E+02  0.1871978E+00  0.2164948E-03  0.3640930E-05  0.3442198E-01  0.1144896E+00  0.1839111E+00  0.4797594E+00
  0.8924224E+02  0.1868125E+00  0.2109160E-03  0.3445702E-05  0.3433047E-01  0.1138555E+00  0.1838014E+00  0.4809858E+00
  0.8974224E+02  0.1864270E+00  0.2055366E-03  0.3263404E-05  0.3423897E-01  0.1132234E+00  0.1836915E+00  0.4822104E+00
  0.9024224E+02  0.1860413E+00  0.2003486E-03  0.3093120E-05  0.3414749E-01  0.1125932E+00  0.1835813E+00  0.4834332E+00
  0.9074224E+02  0.1856555E+00  0.1953444E-03  0.2933999E-05  0.3405603E-01  0.1119650E+00  0.1834709E+00  0.4846543E+00