title = "dataset perm1"
variables = "time","calcite","porosity"
zone t = "phi_i, volume =    41", f=point
  0.0000000E+00  0.3000000E+00  0.3500000E+00
  0.1000000E-05  0.3000000E+00  0.3500000E+00
  0.2870829E-05  0.3000000E+00  0.3500000E+00
  0.5518272E-05  0.3000000E+00  0.3500000E+00
  0.7308364E-05  0.3000000E+00  0.3500000E+00
  0.9584745E-05  0.3000000E+00  0.3500000E+00
  0.1339386E-04  0.3000000E+00  0.3500000E+00
  0.1976773E-04  0.3000000E+00  0.3500000E+00
  0.3043325E-04  0.3000000E+00  0.3500000E+00
  0.4828009E-04  0.3000000E+00  0.3500000E+00
  0.7814355E-04  0.3000000E+00  0.3500000E+00
  0.1281147E-03  0.3000000E+00  0.3500000E+00
  0.1995204E-03  0.3000000E+00  0.3500000E+00
  0.2832522E-03  0.3000000E+00  0.3500000E+00
  0.4021505E-03  0.3000000E+00  0.3500000E+00
  0.5722004E-03  0.3000000E+00  0.3500000E+00
  0.7682648E-03  0.3000000E+00  0.3500000E+00
  0.1045206E-02  0.3000000E+00  0.3500000E+00
  0.1361537E-02  0.3000000E+00  0.3500000E+00
  0.1763333E-02  0.3000000E+00  0.3500000E+00
  0.2260809E-02  0.3000000E+00  0.3500000E+00
  0.2851449E-02  0.3000000E+00  0.3500000E+00
  0.3557337E-02  0.3000000E+00  0.3500000E+00
  0.4395673E-02  0.3000000E+00  0.3500000E+00
  0.5364483E-02  0.3000000E+00  0.3500000E+00
  0.6493304E-02  0.3000000E+00  0.3500000E+00
  0.7796442E-02  0.3000000E+00  0.3500000E+00
  0.9298706E-02  0.3000000E+00  0.3500000E+00
  0.1100688E-01  0.3000000E+00  0.3500000E+00
  0.1294382E-01  0.3000000E+00  0.3500000E+00
  0.1512302E-01  0.3000000E+00  0.3500000E+00
  0.1757691E-01  0.3000000E+00  0.3500000E+00
  0.2032115E-01  0.3000000E+00  0.3500000E+00
  0.2337370E-01  0.3000001E+00  0.3500000E+00
  0.2676239E-01  0.3000001E+00  0.3499999E+00
  0.3050929E-01  0.3000000E+00  0.3499999E+00
  0.3464304E-01  0.2999994E+00  0.3500000E+00
  0.3918878E-01  0.2999984E+00  0.3500006E+00
  0.4417572E-01  0.2999973E+00  0.3500016E+00
  0.4963069E-01  0.2999963E+00  0.3500027E+00
  0.5558759E-01  0.2999955E+00  0.3500037E+00
  0.6207829E-01  0.2999950E+00  0.3500045E+00
  0.6913557E-01  0.2999947E+00  0.3500050E+00
  0.7686019E-01  0.2999945E+00  0.3500053E+00
  0.8661616E-01  0.2999944E+00  0.3500055E+00
  0.1005942E+00  0.2999945E+00  0.3500056E+00
  0.1219460E+00  0.2999945E+00  0.3500055E+00
  0.1576744E+00  0.2999946E+00  0.3500055E+00
  0.2174594E+00  0.2999946E+00  0.3500054E+00
  0.3293069E+00  0.2999946E+00  0.3500054E+00
  0.5709252E+00  0.2999946E+00  0.3500054E+00
  0.1092880E+01  0.2999946E+00  0.3500054E+00
  0.2220432E+01  0.2999946E+00  0.3500054E+00
  0.4656223E+01  0.2999946E+00  0.3500054E+00
  0.9213169E+01  0.2999946E+00  0.3500054E+00
  0.1000000E+02  0.2999946E+00  0.3500054E+00
  0.1115748E+02  0.2999946E+00  0.3500054E+00
  0.1332292E+02  0.2999946E+00  0.3500054E+00
  0.1602845E+02  0.2999946E+00  0.3500054E+00
  0.1966657E+02  0.2999946E+00  0.3500054E+00
  0.2208714E+02  0.2999946E+00  0.3500054E+00
  0.2287745E+02  0.2999946E+00  0.3500054E+00
  0.2333361E+02  0.2999946E+00  0.3500054E+00
  0.2403691E+02  0.2999946E+00  0.3500054E+00
  0.2535268E+02  0.2999946E+00  0.3500054E+00
  0.2633052E+02  0.2999946E+00  0.3500054E+00
  0.2690269E+02  0.2999946E+00  0.3500054E+00
  0.2797313E+02  0.2999946E+00  0.3500054E+00
  0.2997573E+02  0.2999946E+00  0.3500054E+00
  0.3260485E+02  0.2999946E+00  0.3500054E+00
  0.3340209E+02  0.2999946E+00  0.3500054E+00
  0.3394929E+02  0.2999946E+00  0.3500054E+00
  0.3487254E+02  0.2999946E+00  0.3500054E+00
  0.3659978E+02  0.2999946E+00  0.3500054E+00
  0.3826918E+02  0.2999946E+00  0.3500054E+00
  0.3885958E+02  0.2999946E+00  0.3500054E+00
  0.3952935E+02  0.2999946E+00  0.3500054E+00
  0.4078237E+02  0.2999946E+00  0.3500054E+00
  0.4312655E+02  0.2999946E+00  0.3500054E+00
  0.4462779E+02  0.2999946E+00  0.3500054E+00
  0.4519917E+02  0.2999946E+00  0.3500054E+00
  0.4577399E+02  0.2999946E+00  0.3500054E+00
  0.4684937E+02  0.2999946E+00  0.3500054E+00
  0.4886123E+02  0.2999946E+00  0.3500054E+00
  0.5004420E+02  0.2999946E+00  0.3500054E+00
  0.5055783E+02  0.2999946E+00  0.3500054E+00
  0.5122273E+02  0.2999946E+00  0.3500054E+00
  0.5246664E+02  0.2999946E+00  0.3500054E+00
  0.5479379E+02  0.2999946E+00  0.3500054E+00
  0.5594726E+02  0.2999946E+00  0.3500054E+00
  0.5644111E+02  0.2999946E+00  0.3500054E+00
  0.5703604E+02  0.2999946E+00  0.3500054E+00
  0.5814905E+02  0.2999946E+00  0.3500054E+00
  0.6023132E+02  0.2999946E+00  0.3500054E+00
  0.6126841E+02  0.2999946E+00  0.3500054E+00
  0.6174546E+02  0.2999946E+00  0.3500054E+00
  0.6239685E+02  0.2999946E+00  0.3500054E+00
  0.6361547E+02  0.2999946E+00  0.3500054E+00
  0.6589531E+02  0.2999946E+00  0.3500054E+00
  0.6691672E+02  0.2999946E+00  0.3500054E+00
  0.6737705E+02  0.2999946E+00  0.3500054E+00
  0.6798158E+02  0.2999946E+00  0.3500054E+00
  0.6911257E+02  0.2999946E+00  0.3500054E+00
  0.7122844E+02  0.2999946E+00  0.3500054E+00
  0.7216440E+02  0.2999946E+00  0.3500054E+00
  0.7261490E+02  0.2999946E+00  0.3500054E+00
  0.7326487E+02  0.2999946E+00  0.3500054E+00
  0.7448084E+02  0.2999946E+00  0.3500054E+00
  0.7675573E+02  0.2999946E+00  0.3500054E+00
  0.7765582E+02  0.2999946E+00  0.3500054E+00
  0.7809156E+02  0.2999946E+00  0.3500054E+00
  0.7872275E+02  0.2999946E+00  0.3500054E+00
  0.7990361E+02  0.2999946E+00  0.3500054E+00
  0.8211280E+02  0.2999946E+00  0.3500054E+00
  0.8291553E+02  0.2999946E+00  0.3500054E+00
  0.8335570E+02  0.2999946E+00  0.3500054E+00
  0.8406737E+02  0.2999946E+00  0.3500054E+00
  0.8539877E+02  0.2999946E+00  0.3500054E+00
  0.8762664E+02  0.2999946E+00  0.3500054E+00
  0.8832636E+02  0.2999946E+00  0.3500054E+00
  0.8878834E+02  0.2999946E+00  0.3500054E+00
  0.8964455E+02  0.2999946E+00  0.3500054E+00
  0.9124636E+02  0.2999946E+00  0.3500054E+00
  0.9229019E+02  0.2999946E+00  0.3500054E+00
  0.9271726E+02  0.2999946E+00  0.3500054E+00
  0.9330557E+02  0.2999946E+00  0.3500054E+00
  0.9440619E+02  0.2999946E+00  0.3500054E+00
  0.9646527E+02  0.2999946E+00  0.3500054E+00
  0.9766775E+02  0.2999946E+00  0.3500054E+00
  0.9809110E+02  0.2999946E+00  0.3500054E+00
  0.9856337E+02  0.2999946E+00  0.3500054E+00
  0.9944690E+02  0.2999946E+00  0.3500054E+00
  0.1000000E+03  0.2999946E+00  0.3500054E+00
  0.1007121E+03  0.2999946E+00  0.3500054E+00
  0.1016516E+03  0.2999946E+00  0.3500054E+00
  0.1020867E+03  0.2999946E+00  0.3500054E+00
  0.1025912E+03  0.2999946E+00  0.3500054E+00
  0.1035350E+03  0.2999946E+00  0.3500054E+00
  0.1053008E+03  0.2999946E+00  0.3500054E+00
  0.1072523E+03  0.2999946E+00  0.3500054E+00
  0.1077973E+03  0.2999946E+00  0.3500054E+00
  0.1081851E+03  0.2999946E+00  0.3500054E+00
  0.1089107E+03  0.2999946E+00  0.3500054E+00
  0.1102681E+03  0.2999946E+00  0.3500054E+00
  0.1117824E+03  0.2999946E+00  0.3500054E+00
  0.1122751E+03  0.2999946E+00  0.3500054E+00
  0.1127362E+03  0.2999946E+00  0.3500054E+00
  0.1135989E+03  0.2999946E+00  0.3500054E+00
  0.1152129E+03  0.2999946E+00  0.3500054E+00
  0.1165530E+03  0.2999946E+00  0.3500054E+00
  0.1169828E+03  0.2999946E+00  0.3500054E+00
  0.1174222E+03  0.2999946E+00  0.3500054E+00
  0.1182444E+03  0.2999946E+00  0.3500054E+00
  0.1197825E+03  0.2999946E+00  0.3500054E+00
  0.1211361E+03  0.2999946E+00  0.3500054E+00
  0.1215637E+03  0.2999946E+00  0.3500054E+00
  0.1219960E+03  0.2999946E+00  0.3500054E+00
  0.1228047E+03  0.2999946E+00  0.3500054E+00
  0.1243176E+03  0.2999946E+00  0.3500054E+00
  0.1256602E+03  0.2999946E+00  0.3500054E+00
  0.1260790E+03  0.2999946E+00  0.3500054E+00
  0.1265042E+03  0.2999946E+00  0.3500054E+00
  0.1272997E+03  0.2999946E+00  0.3500054E+00
  0.1287878E+03  0.2999946E+00  0.3500054E+00
  0.1301041E+03  0.2999946E+00  0.3500054E+00
  0.1305112E+03  0.2999946E+00  0.3500054E+00
  0.1309320E+03  0.2999946E+00  0.3500054E+00
  0.1317193E+03  0.2999946E+00  0.3500054E+00
  0.1331920E+03  0.2999946E+00  0.3500054E+00
  0.1344758E+03  0.2999946E+00  0.3500054E+00
  0.1348699E+03  0.2999946E+00  0.3500054E+00
  0.1352870E+03  0.2999946E+00  0.3500054E+00
  0.1360675E+03  0.2999946E+00  0.3500054E+00
  0.1375275E+03  0.2999946E+00  0.3500054E+00
  0.1387713E+03  0.2999946E+00  0.3500054E+00
  0.1391513E+03  0.2999946E+00  0.3500054E+00
  0.1395664E+03  0.2999946E+00  0.3500054E+00
  0.1403432E+03  0.2999946E+00  0.3500054E+00
  0.1417964E+03  0.2999946E+00  0.3500054E+00
  0.1429928E+03  0.2999946E+00  0.3500054E+00
  0.1433573E+03  0.2999946E+00  0.3500054E+00
  0.1437722E+03  0.2999946E+00  0.3500054E+00
  0.1445484E+03  0.2999946E+00  0.3500054E+00
  0.1460006E+03  0.2999946E+00  0.3500054E+00
  0.1471405E+03  0.2999946E+00  0.3500054E+00
  0.1474883E+03  0.2999946E+00  0.3500054E+00
  0.1479052E+03  0.2999946E+00  0.3500054E+00
  0.1486853E+03  0.2999946E+00  0.3500054E+00
  0.1501448E+03  0.2999946E+00  0.3500054E+00
  0.1512170E+03  0.2999946E+00  0.3500054E+00
  0.1515464E+03  0.2999946E+00  0.3500054E+00
  0.1519690E+03  0.2999946E+00  0.3500054E+00
  0.1527594E+03  0.2999945E+00  0.3500054E+00
  0.1542383E+03  0.2999944E+00  0.3500055E+00
  0.1552273E+03  0.2999944E+00  0.3500056E+00
  0.1555368E+03  0.2999943E+00  0.3500056E+00
  0.1559709E+03  0.2999942E+00  0.3500057E+00
  0.1567830E+03  0.2999941E+00  0.3500058E+00
  0.1583023E+03  0.2999936E+00  0.3500059E+00
  0.1591857E+03  0.2999932E+00  0.3500064E+00
  0.1594739E+03  0.2999930E+00  0.3500068E+00
  0.1599324E+03  0.2999926E+00  0.3500070E+00
  0.1607902E+03  0.2999918E+00  0.3500074E+00
  0.1623949E+03  0.2999895E+00  0.3500082E+00
  0.1631396E+03  0.2999876E+00  0.3500105E+00
  0.1634090E+03  0.2999867E+00  0.3500124E+00
  0.1639132E+03  0.2999847E+00  0.3500133E+00
  0.1648564E+03  0.2999801E+00  0.3500153E+00
  0.1666209E+03  0.2999669E+00  0.3500199E+00
  0.1672171E+03  0.2999586E+00  0.3500331E+00
  0.1674972E+03  0.2999535E+00  0.3500414E+00
  0.1680211E+03  0.2999424E+00  0.3500465E+00
  0.1690013E+03  0.2999173E+00  0.3500576E+00
  0.1704878E+03  0.2998575E+00  0.3500827E+00
  0.1709272E+03  0.2998277E+00  0.3501425E+00
  0.1712852E+03  0.2997977E+00  0.3501723E+00
  0.1719548E+03  0.2997327E+00  0.3502023E+00
  0.1732076E+03  0.2995671E+00  0.3502673E+00
  0.1739808E+03  0.2994004E+00  0.3504329E+00
  0.1742470E+03  0.2993235E+00  0.3505996E+00
  0.1747450E+03  0.2991613E+00  0.3506765E+00
  0.1756766E+03  0.2987980E+00  0.3508387E+00
  0.1774196E+03  0.2977155E+00  0.3512020E+00
  0.1780266E+03  0.2970055E+00  0.3522845E+00
  0.1782804E+03  0.2966230E+00  0.3529945E+00
  0.1787486E+03  0.2958373E+00  0.3533770E+00
  0.1796246E+03  0.2940842E+00  0.3541627E+00
  0.1809625E+03  0.2900316E+00  0.3559158E+00
  0.1813881E+03  0.2879758E+00  0.3599684E+00
  0.1817157E+03  0.2861133E+00  0.3620242E+00
  0.1823286E+03  0.2821927E+00  0.3638867E+00
  0.1834753E+03  0.2727684E+00  0.3678073E+00
  0.1844336E+03  0.2602866E+00  0.3772316E+00
  0.1847173E+03  0.2554017E+00  0.3897134E+00
  0.1851598E+03  0.2471241E+00  0.3945983E+00
  0.1859875E+03  0.2295900E+00  0.4028759E+00
  0.1875362E+03  0.1847033E+00  0.4204100E+00
  0.1880906E+03  0.1631450E+00  0.4652967E+00
  0.1883379E+03  0.1530986E+00  0.4868550E+00
  0.1887974E+03  0.1342284E+00  0.4969014E+00
  0.1896571E+03  0.9846406E-01  0.5157716E+00
  0.1908825E+03  0.4743854E-01  0.5515359E+00
  0.1912742E+03  0.3590557E-01  0.6025615E+00
  0.1915845E+03  0.2811300E-01  0.6140944E+00
  0.1921650E+03  0.1547432E-01  0.6218870E+00
  0.1932510E+03  0.1000000E-09  0.6345257E+00
  0.1941884E+03  0.1000000E-09  0.6500000E+00
  0.1944635E+03  0.1000000E-09  0.6500000E+00
  0.1948407E+03  0.1000000E-09  0.6500000E+00
  0.1955463E+03  0.1000000E-09  0.6500000E+00
  0.1968664E+03  0.1000000E-09  0.6500000E+00
  0.1974127E+03  0.1000000E-09  0.6500000E+00
  0.1976474E+03  0.1000000E-09  0.6500000E+00
  0.1980747E+03  0.1000000E-09  0.6500000E+00
  0.1988743E+03  0.1000000E-09  0.6500000E+00
  0.2000731E+03  0.1000000E-09  0.6500000E+00
  0.2004807E+03  0.1000000E-09  0.6500000E+00
  0.2007465E+03  0.1000000E-09  0.6500000E+00
  0.2012439E+03  0.1000000E-09  0.6500000E+00
  0.2021744E+03  0.1000000E-09  0.6500000E+00
  0.2031517E+03  0.1000000E-09  0.6500000E+00
  0.2034553E+03  0.1000000E-09  0.6500000E+00
  0.2037426E+03  0.1000000E-09  0.6500000E+00
  0.2042800E+03  0.1000000E-09  0.6500000E+00
  0.2052854E+03  0.1000000E-09  0.6500000E+00
  0.2061182E+03  0.1000000E-09  0.6500000E+00
  0.2063786E+03  0.1000000E-09  0.6500000E+00
  0.2066839E+03  0.1000000E-09  0.6500000E+00
  0.2072549E+03  0.1000000E-09  0.6500000E+00
  0.2083231E+03  0.1000000E-09  0.6500000E+00
  0.2089054E+03  0.1000000E-09  0.6500000E+00
  0.2091421E+03  0.1000000E-09  0.6500000E+00
  0.2094887E+03  0.1000000E-09  0.6500000E+00
  0.2101371E+03  0.1000000E-09  0.6500000E+00
  0.2111375E+03  0.1000000E-09  0.6500000E+00
  0.2115980E+03  0.1000000E-09  0.6500000E+00
  0.2118284E+03  0.1000000E-09  0.6500000E+00
  0.2122143E+03  0.1000000E-09  0.6500000E+00
  0.2129362E+03  0.1000000E-09  0.6500000E+00
  0.2138490E+03  0.1000000E-09  0.6500000E+00
  0.2142303E+03  0.1000000E-09  0.6500000E+00
  0.2144675E+03  0.1000000E-09  0.6500000E+00
  0.2148978E+03  0.1000000E-09  0.6500000E+00
  0.2157029E+03  0.1000000E-09  0.6500000E+00
  0.2165080E+03  0.1000000E-09  0.6500000E+00
  0.2168245E+03  0.1000000E-09  0.6500000E+00
  0.2170282E+03  0.1000000E-09  0.6500000E+00
  0.2174093E+03  0.1000000E-09  0.6500000E+00
  0.2181223E+03  0.1000000E-09  0.6500000E+00
  0.2188805E+03  0.1000000E-09  0.6500000E+00
  0.2192402E+03  0.1000000E-09  0.6500000E+00
  0.2194653E+03  0.1000000E-09  0.6500000E+00
  0.2197829E+03  0.1000000E-09  0.6500000E+00
  0.2203771E+03  0.1000000E-09  0.6500000E+00
  0.2211246E+03  0.1000000E-09  0.6500000E+00
  0.2215477E+03  0.1000000E-09  0.6500000E+00
  0.2218347E+03  0.1000000E-09  0.6500000E+00
  0.2220986E+03  0.1000000E-09  0.6500000E+00
  0.2224350E+03  0.1000000E-09  0.6500000E+00
  0.2229228E+03  0.1000000E-09  0.6500000E+00
  0.2234173E+03  0.1000000E-09  0.6500000E+00
  0.2238203E+03  0.1000000E-09  0.6500000E+00
  0.2243087E+03  0.1000000E-09  0.6500000E+00
  0.2248155E+03  0.1000000E-09  0.6500000E+00
  0.2250997E+03  0.1000000E-09  0.6500000E+00
  0.2252867E+03  0.1000000E-09  0.6500000E+00
  0.2255733E+03  0.1000000E-09  0.6500000E+00
  0.2261093E+03  0.1000000E-09  0.6500000E+00
  0.2271122E+03  0.1000000E-09  0.6500000E+00
  0.2277055E+03  0.1000000E-09  0.6500000E+00
  0.2278790E+03  0.1000000E-09  0.6500000E+00
  0.2280524E+03  0.1000000E-09  0.6500000E+00
  0.2283769E+03  0.1000000E-09  0.6500000E+00
  0.2289840E+03  0.1000000E-09  0.6500000E+00
  0.2294565E+03  0.1000000E-09  0.6500000E+00
  0.2296843E+03  0.1000000E-09  0.6500000E+00
  0.2299110E+03  0.1000000E-09  0.6500000E+00
  0.2303350E+03  0.1000000E-09  0.6500000E+00
  0.2311282E+03  0.1000000E-09  0.6500000E+00
  0.2316597E+03  0.1000000E-09  0.6500000E+00
  0.2318343E+03  0.1000000E-09  0.6500000E+00
  0.2320163E+03  0.1000000E-09  0.6500000E+00
  0.2323569E+03  0.1000000E-09  0.6500000E+00
  0.2329940E+03  0.1000000E-09  0.6500000E+00
  0.2335031E+03  0.1000000E-09  0.6500000E+00
  0.2336855E+03  0.1000000E-09  0.6500000E+00
  0.2338760E+03  0.1000000E-09  0.6500000E+00
  0.2342325E+03  0.1000000E-09  0.6500000E+00
  0.2348993E+03  0.1000000E-09  0.6500000E+00
  0.2354412E+03  0.1000000E-09  0.6500000E+00
  0.2356131E+03  0.1000000E-09  0.6500000E+00
  0.2357968E+03  0.1000000E-09  0.6500000E+00
  0.2361404E+03  0.1000000E-09  0.6500000E+00
  0.2367832E+03  0.1000000E-09  0.6500000E+00
  0.2372546E+03  0.1000000E-09  0.6500000E+00
  0.2374114E+03  0.1000000E-09  0.6500000E+00
  0.2376001E+03  0.1000000E-09  0.6500000E+00
  0.2379531E+03  0.1000000E-09  0.6500000E+00
  0.2386136E+03  0.1000000E-09  0.6500000E+00
  0.2390272E+03  0.1000000E-09  0.6500000E+00
  0.2391714E+03  0.1000000E-09  0.6500000E+00
  0.2393422E+03  0.1000000E-09  0.6500000E+00
  0.2396617E+03  0.1000000E-09  0.6500000E+00
  0.2402596E+03  0.1000000E-09  0.6500000E+00
  0.2406790E+03  0.1000000E-09  0.6500000E+00
  0.2408298E+03  0.1000000E-09  0.6500000E+00
  0.2409867E+03  0.1000000E-09  0.6500000E+00
  0.2412803E+03  0.1000000E-09  0.6500000E+00
  0.2418058E+03  0.1000000E-09  0.6500000E+00
  0.2421754E+03  0.1000000E-09  0.6500000E+00
  0.2423384E+03  0.1000000E-09  0.6500000E+00
  0.2424755E+03  0.1000000E-09  0.6500000E+00
  0.2427319E+03  0.1000000E-09  0.6500000E+00
  0.2432118E+03  0.1000000E-09  0.6500000E+00
  0.2435987E+03  0.1000000E-09  0.6500000E+00
  0.2437767E+03  0.1000000E-09  0.6500000E+00
  0.2439326E+03  0.1000000E-09  0.6500000E+00
  0.2441570E+03  0.1000000E-09  0.6500000E+00
  0.2444333E+03  0.1000000E-09  0.6500000E+00
  0.2446546E+03  0.1000000E-09  0.6500000E+00
  0.2448240E+03  0.1000000E-09  0.6500000E+00
  0.2450626E+03  0.1000000E-09  0.6500000E+00
  0.2455088E+03  0.1000000E-09  0.6500000E+00
  0.2460579E+03  0.1000000E-09  0.6500000E+00
  0.2462437E+03  0.1000000E-09  0.6500000E+00
  0.2463322E+03  0.1000000E-09  0.6500000E+00
  0.2464767E+03  0.1000000E-09  0.6500000E+00
  0.2467472E+03  0.1000000E-09  0.6500000E+00
  0.2471482E+03  0.1000000E-09  0.6500000E+00
  0.2473431E+03  0.1000000E-09  0.6500000E+00
  0.2474495E+03  0.1000000E-09  0.6500000E+00
  0.2476412E+03  0.1000000E-09  0.6500000E+00
  0.2479997E+03  0.1000000E-09  0.6500000E+00
  0.2484284E+03  0.1000000E-09  0.6500000E+00
  0.2485819E+03  0.1000000E-09  0.6500000E+00
  0.2486701E+03  0.1000000E-09  0.6500000E+00
  0.2488241E+03  0.1000000E-09  0.6500000E+00
  0.2491121E+03  0.1000000E-09  0.6500000E+00
  0.2494456E+03  0.1000000E-09  0.6500000E+00
  0.2495975E+03  0.1000000E-09  0.6500000E+00
  0.2496951E+03  0.1000000E-09  0.6500000E+00
  0.2498524E+03  0.1000000E-09  0.6500000E+00
  0.2500000E+03  0.1000000E-09  0.6500000E+00
  0.2501437E+03  0.1000000E-09  0.6500000E+00
  0.2502685E+03  0.1000000E-09  0.6500000E+00
  0.2503901E+03  0.1000000E-09  0.6500000E+00
  0.2505742E+03  0.1000000E-09  0.6500000E+00
  0.2509187E+03  0.1000000E-09  0.6500000E+00
  0.2513585E+03  0.1000000E-09  0.6500000E+00
  0.2515102E+03  0.1000000E-09  0.6500000E+00
  0.2515757E+03  0.1000000E-09  0.6500000E+00
  0.2516429E+03  0.1000000E-09  0.6500000E+00
  0.2517663E+03  0.1000000E-09  0.6500000E+00
  0.2519654E+03  0.1000000E-09  0.6500000E+00
  0.2521388E+03  0.1000000E-09  0.6500000E+00
  0.2522733E+03  0.1000000E-09  0.6500000E+00
  0.2524191E+03  0.1000000E-09  0.6500000E+00
  0.2525585E+03  0.1000000E-09  0.6500000E+00
  0.2526551E+03  0.1000000E-09  0.6500000E+00
  0.2527366E+03  0.1000000E-09  0.6500000E+00
  0.2528789E+03  0.1000000E-09  0.6500000E+00
  0.2531453E+03  0.1000000E-09  0.6500000E+00
  0.2534029E+03  0.1000000E-09  0.6500000E+00
  0.2534955E+03  0.1000000E-09  0.6500000E+00
  0.2535539E+03  0.1000000E-09  0.6500000E+00
  0.2536218E+03  0.1000000E-09  0.6500000E+00
  0.2537326E+03  0.1000000E-09  0.6500000E+00
  0.2538907E+03  0.1000000E-09  0.6500000E+00
  0.2540599E+03  0.1000000E-09  0.6500000E+00
  0.2542445E+03  0.1000000E-09  0.6500000E+00
  0.2543708E+03  0.1000000E-09  0.6500000E+00
  0.2544423E+03  0.1000000E-09  0.6500000E+00
  0.2545343E+03  0.1000000E-09  0.6500000E+00
  0.2547064E+03  0.1000000E-09  0.6500000E+00
  0.2549501E+03  0.1000000E-09  0.6500000E+00
  0.2551024E+03  0.1000000E-09  0.6500000E+00
  0.2551982E+03  0.1000000E-09  0.6500000E+00
  0.2552749E+03  0.1000000E-09  0.6500000E+00
  0.2553635E+03  0.1000000E-09  0.6500000E+00
  0.2555092E+03  0.1000000E-09  0.6500000E+00
  0.2557656E+03  0.1000000E-09  0.6500000E+00
  0.2560285E+03  0.1000000E-09  0.6500000E+00
  0.2561445E+03  0.1000000E-09  0.6500000E+00
  0.2562019E+03  0.1000000E-09  0.6500000E+00
  0.2562595E+03  0.1000000E-09  0.6500000E+00
  0.2563672E+03  0.1000000E-09  0.6500000E+00
  0.2565687E+03  0.1000000E-09  0.6500000E+00
  0.2568164E+03  0.1000000E-09  0.6500000E+00
  0.2569533E+03  0.1000000E-09  0.6500000E+00
  0.2570153E+03  0.1000000E-09  0.6500000E+00
  0.2570695E+03  0.1000000E-09  0.6500000E+00
  0.2571645E+03  0.1000000E-09  0.6500000E+00
  0.2573421E+03  0.1000000E-09  0.6500000E+00
  0.2575504E+03  0.1000000E-09  0.6500000E+00
  0.2577209E+03  0.1000000E-09  0.6500000E+00
  0.2579234E+03  0.1000000E-09  0.6500000E+00
  0.2583021E+03  0.1000000E-09  0.6500000E+00
  0.2590106E+03  0.1000000E-09  0.6500000E+00
  0.2602181E+03  0.1000000E-09  0.6500000E+00
  0.2619293E+03  0.1000000E-09  0.6500000E+00
  0.2656259E+03  0.1000000E-09  0.6500000E+00
  0.2754063E+03  0.1000000E-09  0.6500000E+00
  0.2854063E+03  0.1000000E-09  0.6500000E+00
  0.2954063E+03  0.1000000E-09  0.6500000E+00
  0.3054063E+03  0.1000000E-09  0.6500000E+00
  0.3154063E+03  0.1000000E-09  0.6500000E+00
  0.3254063E+03  0.1000000E-09  0.6500000E+00
  0.3354063E+03  0.1000000E-09  0.6500000E+00
  0.3454063E+03  0.1000000E-09  0.6500000E+00
  0.3554063E+03  0.1000000E-09  0.6500000E+00
  0.3654063E+03  0.1000000E-09  0.6500000E+00
  0.3754063E+03  0.1000000E-09  0.6500000E+00
  0.3854063E+03  0.1000000E-09  0.6500000E+00
  0.3954063E+03  0.1000000E-09  0.6500000E+00
  0.4054063E+03  0.1000000E-09  0.6500000E+00
  0.4154063E+03  0.1000000E-09  0.6500000E+00
  0.4254063E+03  0.1000000E-09  0.6500000E+00
  0.4354063E+03  0.1000000E-09  0.6500000E+00
  0.4454063E+03  0.1000000E-09  0.6500000E+00
  0.4554063E+03  0.1000000E-09  0.6500000E+00
  0.4654063E+03  0.1000000E-09  0.6500000E+00
  0.4754063E+03  0.1000000E-09  0.6500000E+00
  0.4854063E+03  0.1000000E-09  0.6500000E+00
  0.4954063E+03  0.1000000E-09  0.6500000E+00
  0.5000000E+03  0.1000000E-09  0.6500000E+00
