title = "dataset perm1"
variables = "x", "y", "z", "h_w", "p_w", "s_w", "theta_a"
zone t = "Flow variables, solution time =  1.000E+02 years       " i =   81, j =    1, k =    1,  f=point
   .0000000E+00   .0000000E+00   .0000000E+00   .1400000E-02   .1400000E-02   .1000000E+01   .6500000E+00
   .0000000E+00   .0000000E+00   .5000000E-02   .1398980E-02  -.3601020E-02   .1000000E+01   .6500000E+00
   .0000000E+00   .0000000E+00   .1000000E-01   .1397960E-02  -.8602040E-02   .1000000E+01   .6500000E+00
   .0000000E+00   .0000000E+00   .1500000E-01   .1396941E-02  -.1360306E-01   .1000000E+01   .6500000E+00
   .0000000E+00   .0000000E+00   .2000000E-01   .1395921E-02  -.1860408E-01   .1000000E+01   .6500000E+00
   .0000000E+00   .0000000E+00   .2500000E-01   .1394901E-02  -.2360510E-01   .1000000E+01   .6500000E+00
   .0000000E+00   .0000000E+00   .3000000E-01   .1393881E-02  -.2860612E-01   .1000000E+01   .6500000E+00
   .0000000E+00   .0000000E+00   .3500000E-01   .1392862E-02  -.3360714E-01   .1000000E+01   .6500000E+00
   .0000000E+00   .0000000E+00   .4000000E-01   .1391842E-02  -.3860816E-01   .1000000E+01   .6500000E+00
   .0000000E+00   .0000000E+00   .4500000E-01   .1390822E-02  -.4360918E-01   .1000000E+01   .6500000E+00
   .0000000E+00   .0000000E+00   .5000000E-01   .1389802E-02  -.4861020E-01   .1000000E+01   .6500000E+00
   .0000000E+00   .0000000E+00   .5500000E-01   .1388783E-02  -.5361122E-01   .1000000E+01   .6500000E+00
   .0000000E+00   .0000000E+00   .6000000E-01   .1387763E-02  -.5861224E-01   .1000000E+01   .6500000E+00
   .0000000E+00   .0000000E+00   .6500000E-01   .1386743E-02  -.6361326E-01   .1000000E+01   .6500000E+00
   .0000000E+00   .0000000E+00   .7000000E-01   .1385723E-02  -.6861428E-01   .1000000E+01   .6500000E+00
   .0000000E+00   .0000000E+00   .7500000E-01   .1384704E-02  -.7361530E-01   .1000000E+01   .6500000E+00
   .0000000E+00   .0000000E+00   .8000000E-01   .1383684E-02  -.7861632E-01   .1000000E+01   .6500000E+00
   .0000000E+00   .0000000E+00   .8500000E-01   .1382581E-02  -.8361742E-01   .1000000E+01   .6352844E+00
   .0000000E+00   .0000000E+00   .9000000E-01   .1379140E-02  -.8862086E-01   .1000000E+01   .4781320E+00
   .0000000E+00   .0000000E+00   .9500000E-01   .1368491E-02  -.9363151E-01   .1000000E+01   .3823614E+00
   .0000000E+00   .0000000E+00   .1000000E+00   .1350290E-02  -.9864971E-01   .1000000E+01   .3568873E+00
   .0000000E+00   .0000000E+00   .1050000E+00   .1328809E-02  -.1036712E+00   .1000000E+01   .3514148E+00
   .0000000E+00   .0000000E+00   .1100000E+00   .1306503E-02  -.1086935E+00   .1000000E+01   .3502925E+00
   .0000000E+00   .0000000E+00   .1150000E+00   .1284022E-02  -.1137160E+00   .1000000E+01   .3500644E+00
   .0000000E+00   .0000000E+00   .1200000E+00   .1261505E-02  -.1187385E+00   .1000000E+01   .3500181E+00
   .0000000E+00   .0000000E+00   .1250000E+00   .1238980E-02  -.1237610E+00   .1000000E+01   .3500086E+00
   .0000000E+00   .0000000E+00   .1300000E+00   .1216454E-02  -.1287835E+00   .1000000E+01   .3500067E+00
   .0000000E+00   .0000000E+00   .1350000E+00   .1193927E-02  -.1338061E+00   .1000000E+01   .3500062E+00
   .0000000E+00   .0000000E+00   .1400000E+00   .1171401E-02  -.1388286E+00   .1000000E+01   .3500061E+00
   .0000000E+00   .0000000E+00   .1450000E+00   .1148874E-02  -.1438511E+00   .1000000E+01   .3500060E+00
   .0000000E+00   .0000000E+00   .1500000E+00   .1126347E-02  -.1488737E+00   .1000000E+01   .3500059E+00
   .0000000E+00   .0000000E+00   .1550000E+00   .1103821E-02  -.1538962E+00   .1000000E+01   .3500059E+00
   .0000000E+00   .0000000E+00   .1600000E+00   .1081294E-02  -.1589187E+00   .1000000E+01   .3500058E+00
   .0000000E+00   .0000000E+00   .1650000E+00   .1058767E-02  -.1639412E+00   .1000000E+01   .3500058E+00
   .0000000E+00   .0000000E+00   .1700000E+00   .1036241E-02  -.1689638E+00   .1000000E+01   .3500057E+00
   .0000000E+00   .0000000E+00   .1750000E+00   .1013714E-02  -.1739863E+00   .1000000E+01   .3500056E+00
   .0000000E+00   .0000000E+00   .1800000E+00   .9911870E-03  -.1790088E+00   .1000000E+01   .3500056E+00
   .0000000E+00   .0000000E+00   .1850000E+00   .9686603E-03  -.1840313E+00   .1000000E+01   .3500055E+00
   .0000000E+00   .0000000E+00   .1900000E+00   .9461335E-03  -.1890539E+00   .1000000E+01   .3500055E+00
   .0000000E+00   .0000000E+00   .1950000E+00   .9236067E-03  -.1940764E+00   .1000000E+01   .3500054E+00
   .0000000E+00   .0000000E+00   .2000000E+00   .9010799E-03  -.1990989E+00   .1000000E+01   .3500054E+00
   .0000000E+00   .0000000E+00   .2050000E+00   .8785531E-03  -.2041214E+00   .1000000E+01   .3500053E+00
   .0000000E+00   .0000000E+00   .2100000E+00   .8560263E-03  -.2091440E+00   .1000000E+01   .3500053E+00
   .0000000E+00   .0000000E+00   .2150000E+00   .8334994E-03  -.2141665E+00   .1000000E+01   .3500052E+00
   .0000000E+00   .0000000E+00   .2200000E+00   .8109726E-03  -.2191890E+00   .1000000E+01   .3500052E+00
   .0000000E+00   .0000000E+00   .2250000E+00   .7884457E-03  -.2242116E+00   .1000000E+01   .3500051E+00
   .0000000E+00   .0000000E+00   .2300000E+00   .7659188E-03  -.2292341E+00   .1000000E+01   .3500051E+00
   .0000000E+00   .0000000E+00   .2350000E+00   .7433919E-03  -.2342566E+00   .1000000E+01   .3500050E+00
   .0000000E+00   .0000000E+00   .2400000E+00   .7208650E-03  -.2392791E+00   .1000000E+01   .3500050E+00
   .0000000E+00   .0000000E+00   .2450000E+00   .6983381E-03  -.2443017E+00   .1000000E+01   .3500049E+00
   .0000000E+00   .0000000E+00   .2500000E+00   .6758112E-03  -.2493242E+00   .1000000E+01   .3500049E+00
   .0000000E+00   .0000000E+00   .2550000E+00   .6532842E-03  -.2543467E+00   .1000000E+01   .3500048E+00
   .0000000E+00   .0000000E+00   .2600000E+00   .6307573E-03  -.2593692E+00   .1000000E+01   .3500048E+00
   .0000000E+00   .0000000E+00   .2650000E+00   .6082303E-03  -.2643918E+00   .1000000E+01   .3500047E+00
   .0000000E+00   .0000000E+00   .2700000E+00   .5857034E-03  -.2694143E+00   .1000000E+01   .3500047E+00
   .0000000E+00   .0000000E+00   .2750000E+00   .5631764E-03  -.2744368E+00   .1000000E+01   .3500047E+00
   .0000000E+00   .0000000E+00   .2800000E+00   .5406494E-03  -.2794594E+00   .1000000E+01   .3500046E+00
   .0000000E+00   .0000000E+00   .2850000E+00   .5181224E-03  -.2844819E+00   .1000000E+01   .3500046E+00
   .0000000E+00   .0000000E+00   .2900000E+00   .4955954E-03  -.2895044E+00   .1000000E+01   .3500046E+00
   .0000000E+00   .0000000E+00   .2950000E+00   .4730683E-03  -.2945269E+00   .1000000E+01   .3500045E+00
   .0000000E+00   .0000000E+00   .3000000E+00   .4505413E-03  -.2995495E+00   .1000000E+01   .3500045E+00
   .0000000E+00   .0000000E+00   .3050000E+00   .4280143E-03  -.3045720E+00   .1000000E+01   .3500045E+00
   .0000000E+00   .0000000E+00   .3100000E+00   .4054872E-03  -.3095945E+00   .1000000E+01   .3500045E+00
   .0000000E+00   .0000000E+00   .3150000E+00   .3829602E-03  -.3146170E+00   .1000000E+01   .3500045E+00
   .0000000E+00   .0000000E+00   .3200000E+00   .3604332E-03  -.3196396E+00   .1000000E+01   .3500045E+00
   .0000000E+00   .0000000E+00   .3250000E+00   .3379061E-03  -.3246621E+00   .1000000E+01   .3500044E+00
   .0000000E+00   .0000000E+00   .3300000E+00   .3153791E-03  -.3296846E+00   .1000000E+01   .3500044E+00
   .0000000E+00   .0000000E+00   .3350000E+00   .2928520E-03  -.3347071E+00   .1000000E+01   .3500044E+00
   .0000000E+00   .0000000E+00   .3400000E+00   .2703250E-03  -.3397297E+00   .1000000E+01   .3500044E+00
   .0000000E+00   .0000000E+00   .3450000E+00   .2477979E-03  -.3447522E+00   .1000000E+01   .3500044E+00
   .0000000E+00   .0000000E+00   .3500000E+00   .2252709E-03  -.3497747E+00   .1000000E+01   .3500044E+00
   .0000000E+00   .0000000E+00   .3550000E+00   .2027438E-03  -.3547973E+00   .1000000E+01   .3500045E+00
   .0000000E+00   .0000000E+00   .3600000E+00   .1802168E-03  -.3598198E+00   .1000000E+01   .3500045E+00
   .0000000E+00   .0000000E+00   .3650000E+00   .1576897E-03  -.3648423E+00   .1000000E+01   .3500045E+00
   .0000000E+00   .0000000E+00   .3700000E+00   .1351627E-03  -.3698648E+00   .1000000E+01   .3500045E+00
   .0000000E+00   .0000000E+00   .3750000E+00   .1126357E-03  -.3748874E+00   .1000000E+01   .3500045E+00
   .0000000E+00   .0000000E+00   .3800000E+00   .9010861E-04  -.3799099E+00   .1000000E+01   .3500044E+00
   .0000000E+00   .0000000E+00   .3850000E+00   .6758155E-04  -.3849324E+00   .1000000E+01   .3500043E+00
   .0000000E+00   .0000000E+00   .3900000E+00   .4505444E-04  -.3899549E+00   .1000000E+01   .3500041E+00
   .0000000E+00   .0000000E+00   .3950000E+00   .2252726E-04  -.3949775E+00   .1000000E+01   .3500038E+00
   .0000000E+00   .0000000E+00   .4000000E+00   .0000000E+00  -.4000000E+00   .1000000E+01   .3500035E+00
