title = "dataset perm1"
variables = "x", "y", "z", "h_w", "p_w", "s_w", "theta_a"
zone t = "Flow variables, solution time =  1.000E+01 years       " i =   81, j =    1, k =    1,  f=point
   .0000000E+00   .0000000E+00   .0000000E+00   .1400000E-02   .1400000E-02   .1000000E+01   .6500000E+00
   .0000000E+00   .0000000E+00   .5000000E-02   .1398811E-02  -.3601189E-02   .1000000E+01   .5850197E+00
   .0000000E+00   .0000000E+00   .1000000E-01   .1393066E-02  -.8606934E-02   .1000000E+01   .4029037E+00
   .0000000E+00   .0000000E+00   .1500000E-01   .1380059E-02  -.1361994E-01   .1000000E+01   .3594331E+00
   .0000000E+00   .0000000E+00   .2000000E-01   .1363212E-02  -.1863679E-01   .1000000E+01   .3516201E+00
   .0000000E+00   .0000000E+00   .2500000E-01   .1345468E-02  -.2365453E-01   .1000000E+01   .3502832E+00
   .0000000E+00   .0000000E+00   .3000000E-01   .1327562E-02  -.2867244E-01   .1000000E+01   .3500560E+00
   .0000000E+00   .0000000E+00   .3500000E-01   .1309628E-02  -.3369037E-01   .1000000E+01   .3500171E+00
   .0000000E+00   .0000000E+00   .4000000E-01   .1291690E-02  -.3870831E-01   .1000000E+01   .3500102E+00
   .0000000E+00   .0000000E+00   .4500000E-01   .1273750E-02  -.4372625E-01   .1000000E+01   .3500088E+00
   .0000000E+00   .0000000E+00   .5000000E-01   .1255811E-02  -.4874419E-01   .1000000E+01   .3500083E+00
   .0000000E+00   .0000000E+00   .5500000E-01   .1237871E-02  -.5376213E-01   .1000000E+01   .3500080E+00
   .0000000E+00   .0000000E+00   .6000000E-01   .1219932E-02  -.5878007E-01   .1000000E+01   .3500078E+00
   .0000000E+00   .0000000E+00   .6500000E-01   .1201992E-02  -.6379801E-01   .1000000E+01   .3500076E+00
   .0000000E+00   .0000000E+00   .7000000E-01   .1184052E-02  -.6881595E-01   .1000000E+01   .3500074E+00
   .0000000E+00   .0000000E+00   .7500000E-01   .1166113E-02  -.7383389E-01   .1000000E+01   .3500073E+00
   .0000000E+00   .0000000E+00   .8000000E-01   .1148173E-02  -.7885183E-01   .1000000E+01   .3500071E+00
   .0000000E+00   .0000000E+00   .8500000E-01   .1130233E-02  -.8386977E-01   .1000000E+01   .3500070E+00
   .0000000E+00   .0000000E+00   .9000000E-01   .1112293E-02  -.8888771E-01   .1000000E+01   .3500069E+00
   .0000000E+00   .0000000E+00   .9500000E-01   .1094353E-02  -.9390565E-01   .1000000E+01   .3500068E+00
   .0000000E+00   .0000000E+00   .1000000E+00   .1076413E-02  -.9892359E-01   .1000000E+01   .3500067E+00
   .0000000E+00   .0000000E+00   .1050000E+00   .1058474E-02  -.1039415E+00   .1000000E+01   .3500066E+00
   .0000000E+00   .0000000E+00   .1100000E+00   .1040534E-02  -.1089595E+00   .1000000E+01   .3500065E+00
   .0000000E+00   .0000000E+00   .1150000E+00   .1022594E-02  -.1139774E+00   .1000000E+01   .3500064E+00
   .0000000E+00   .0000000E+00   .1200000E+00   .1004654E-02  -.1189953E+00   .1000000E+01   .3500063E+00
   .0000000E+00   .0000000E+00   .1250000E+00   .9867138E-03  -.1240133E+00   .1000000E+01   .3500063E+00
   .0000000E+00   .0000000E+00   .1300000E+00   .9687738E-03  -.1290312E+00   .1000000E+01   .3500062E+00
   .0000000E+00   .0000000E+00   .1350000E+00   .9508338E-03  -.1340492E+00   .1000000E+01   .3500061E+00
   .0000000E+00   .0000000E+00   .1400000E+00   .9328938E-03  -.1390671E+00   .1000000E+01   .3500061E+00
   .0000000E+00   .0000000E+00   .1450000E+00   .9149538E-03  -.1440850E+00   .1000000E+01   .3500060E+00
   .0000000E+00   .0000000E+00   .1500000E+00   .8970137E-03  -.1491030E+00   .1000000E+01   .3500059E+00
   .0000000E+00   .0000000E+00   .1550000E+00   .8790737E-03  -.1541209E+00   .1000000E+01   .3500059E+00
   .0000000E+00   .0000000E+00   .1600000E+00   .8611336E-03  -.1591389E+00   .1000000E+01   .3500058E+00
   .0000000E+00   .0000000E+00   .1650000E+00   .8431935E-03  -.1641568E+00   .1000000E+01   .3500058E+00
   .0000000E+00   .0000000E+00   .1700000E+00   .8252535E-03  -.1691747E+00   .1000000E+01   .3500057E+00
   .0000000E+00   .0000000E+00   .1750000E+00   .8073134E-03  -.1741927E+00   .1000000E+01   .3500056E+00
   .0000000E+00   .0000000E+00   .1800000E+00   .7893732E-03  -.1792106E+00   .1000000E+01   .3500056E+00
   .0000000E+00   .0000000E+00   .1850000E+00   .7714331E-03  -.1842286E+00   .1000000E+01   .3500055E+00
   .0000000E+00   .0000000E+00   .1900000E+00   .7534930E-03  -.1892465E+00   .1000000E+01   .3500055E+00
   .0000000E+00   .0000000E+00   .1950000E+00   .7355528E-03  -.1942644E+00   .1000000E+01   .3500054E+00
   .0000000E+00   .0000000E+00   .2000000E+00   .7176127E-03  -.1992824E+00   .1000000E+01   .3500054E+00
   .0000000E+00   .0000000E+00   .2050000E+00   .6996725E-03  -.2043003E+00   .1000000E+01   .3500053E+00
   .0000000E+00   .0000000E+00   .2100000E+00   .6817323E-03  -.2093183E+00   .1000000E+01   .3500053E+00
   .0000000E+00   .0000000E+00   .2150000E+00   .6637921E-03  -.2143362E+00   .1000000E+01   .3500052E+00
   .0000000E+00   .0000000E+00   .2200000E+00   .6458519E-03  -.2193541E+00   .1000000E+01   .3500052E+00
   .0000000E+00   .0000000E+00   .2250000E+00   .6279117E-03  -.2243721E+00   .1000000E+01   .3500051E+00
   .0000000E+00   .0000000E+00   .2300000E+00   .6099715E-03  -.2293900E+00   .1000000E+01   .3500051E+00
   .0000000E+00   .0000000E+00   .2350000E+00   .5920313E-03  -.2344080E+00   .1000000E+01   .3500050E+00
   .0000000E+00   .0000000E+00   .2400000E+00   .5740910E-03  -.2394259E+00   .1000000E+01   .3500050E+00
   .0000000E+00   .0000000E+00   .2450000E+00   .5561508E-03  -.2444438E+00   .1000000E+01   .3500049E+00
   .0000000E+00   .0000000E+00   .2500000E+00   .5382105E-03  -.2494618E+00   .1000000E+01   .3500049E+00
   .0000000E+00   .0000000E+00   .2550000E+00   .5202702E-03  -.2544797E+00   .1000000E+01   .3500048E+00
   .0000000E+00   .0000000E+00   .2600000E+00   .5023299E-03  -.2594977E+00   .1000000E+01   .3500048E+00
   .0000000E+00   .0000000E+00   .2650000E+00   .4843896E-03  -.2645156E+00   .1000000E+01   .3500047E+00
   .0000000E+00   .0000000E+00   .2700000E+00   .4664494E-03  -.2695336E+00   .1000000E+01   .3500047E+00
   .0000000E+00   .0000000E+00   .2750000E+00   .4485090E-03  -.2745515E+00   .1000000E+01   .3500047E+00
   .0000000E+00   .0000000E+00   .2800000E+00   .4305687E-03  -.2795694E+00   .1000000E+01   .3500046E+00
   .0000000E+00   .0000000E+00   .2850000E+00   .4126284E-03  -.2845874E+00   .1000000E+01   .3500046E+00
   .0000000E+00   .0000000E+00   .2900000E+00   .3946881E-03  -.2896053E+00   .1000000E+01   .3500046E+00
   .0000000E+00   .0000000E+00   .2950000E+00   .3767477E-03  -.2946233E+00   .1000000E+01   .3500045E+00
   .0000000E+00   .0000000E+00   .3000000E+00   .3588074E-03  -.2996412E+00   .1000000E+01   .3500045E+00
   .0000000E+00   .0000000E+00   .3050000E+00   .3408671E-03  -.3046591E+00   .1000000E+01   .3500045E+00
   .0000000E+00   .0000000E+00   .3100000E+00   .3229267E-03  -.3096771E+00   .1000000E+01   .3500045E+00
   .0000000E+00   .0000000E+00   .3150000E+00   .3049864E-03  -.3146950E+00   .1000000E+01   .3500045E+00
   .0000000E+00   .0000000E+00   .3200000E+00   .2870460E-03  -.3197130E+00   .1000000E+01   .3500045E+00
   .0000000E+00   .0000000E+00   .3250000E+00   .2691057E-03  -.3247309E+00   .1000000E+01   .3500044E+00
   .0000000E+00   .0000000E+00   .3300000E+00   .2511653E-03  -.3297488E+00   .1000000E+01   .3500044E+00
   .0000000E+00   .0000000E+00   .3350000E+00   .2332249E-03  -.3347668E+00   .1000000E+01   .3500044E+00
   .0000000E+00   .0000000E+00   .3400000E+00   .2152846E-03  -.3397847E+00   .1000000E+01   .3500044E+00
   .0000000E+00   .0000000E+00   .3450000E+00   .1973442E-03  -.3448027E+00   .1000000E+01   .3500044E+00
   .0000000E+00   .0000000E+00   .3500000E+00   .1794039E-03  -.3498206E+00   .1000000E+01   .3500044E+00
   .0000000E+00   .0000000E+00   .3550000E+00   .1614635E-03  -.3548385E+00   .1000000E+01   .3500045E+00
   .0000000E+00   .0000000E+00   .3600000E+00   .1435232E-03  -.3598565E+00   .1000000E+01   .3500045E+00
   .0000000E+00   .0000000E+00   .3650000E+00   .1255828E-03  -.3648744E+00   .1000000E+01   .3500045E+00
   .0000000E+00   .0000000E+00   .3700000E+00   .1076425E-03  -.3698924E+00   .1000000E+01   .3500045E+00
   .0000000E+00   .0000000E+00   .3750000E+00   .8970212E-04  -.3749103E+00   .1000000E+01   .3500045E+00
   .0000000E+00   .0000000E+00   .3800000E+00   .7176176E-04  -.3799282E+00   .1000000E+01   .3500044E+00
   .0000000E+00   .0000000E+00   .3850000E+00   .5382139E-04  -.3849462E+00   .1000000E+01   .3500043E+00
   .0000000E+00   .0000000E+00   .3900000E+00   .3588098E-04  -.3899641E+00   .1000000E+01   .3500041E+00
   .0000000E+00   .0000000E+00   .3950000E+00   .1794052E-04  -.3949821E+00   .1000000E+01   .3500038E+00
   .0000000E+00   .0000000E+00   .4000000E+00   .0000000E+00  -.4000000E+00   .1000000E+01   .3500035E+00
