title = "dataset perm1"
variables = "x", "y", "z","calcite","porosity"
zone t = "phi_i, T =  1.000E+02 years", i =   81, j =    1, k =    1,  f=point
   .0000000E+00   .0000000E+00   .0000000E+00   .1000000E-09   .6500000E+00
   .0000000E+00   .0000000E+00   .5000000E-02   .1000000E-09   .6500000E+00
   .0000000E+00   .0000000E+00   .1000000E-01   .1000000E-09   .6500000E+00
   .0000000E+00   .0000000E+00   .1500000E-01   .1000000E-09   .6500000E+00
   .0000000E+00   .0000000E+00   .2000000E-01   .1000000E-09   .6500000E+00
   .0000000E+00   .0000000E+00   .2500000E-01   .1000000E-09   .6500000E+00
   .0000000E+00   .0000000E+00   .3000000E-01   .1000000E-09   .6500000E+00
   .0000000E+00   .0000000E+00   .3500000E-01   .1000000E-09   .6500000E+00
   .0000000E+00   .0000000E+00   .4000000E-01   .1000000E-09   .6500000E+00
   .0000000E+00   .0000000E+00   .4500000E-01   .1000000E-09   .6500000E+00
   .0000000E+00   .0000000E+00   .5000000E-01   .1000000E-09   .6500000E+00
   .0000000E+00   .0000000E+00   .5500000E-01   .1000000E-09   .6500000E+00
   .0000000E+00   .0000000E+00   .6000000E-01   .1000000E-09   .6500000E+00
   .0000000E+00   .0000000E+00   .6500000E-01   .1000000E-09   .6500000E+00
   .0000000E+00   .0000000E+00   .7000000E-01   .1000000E-09   .6500000E+00
   .0000000E+00   .0000000E+00   .7500000E-01   .1000000E-09   .6500000E+00
   .0000000E+00   .0000000E+00   .8000000E-01   .1000000E-09   .6500000E+00
   .0000000E+00   .0000000E+00   .8500000E-01   .7081813E-02   .6352844E+00
   .0000000E+00   .0000000E+00   .9000000E-01   .1534934E+00   .4781320E+00
   .0000000E+00   .0000000E+00   .9500000E-01   .2612067E+00   .3823614E+00
   .0000000E+00   .0000000E+00   .1000000E+00   .2916384E+00   .3568873E+00
   .0000000E+00   .0000000E+00   .1050000E+00   .2982767E+00   .3514148E+00
   .0000000E+00   .0000000E+00   .1100000E+00   .2996442E+00   .3502925E+00
   .0000000E+00   .0000000E+00   .1150000E+00   .2999226E+00   .3500644E+00
   .0000000E+00   .0000000E+00   .1200000E+00   .2999793E+00   .3500181E+00
   .0000000E+00   .0000000E+00   .1250000E+00   .2999908E+00   .3500086E+00
   .0000000E+00   .0000000E+00   .1300000E+00   .2999932E+00   .3500067E+00
   .0000000E+00   .0000000E+00   .1350000E+00   .2999938E+00   .3500062E+00
   .0000000E+00   .0000000E+00   .1400000E+00   .2999939E+00   .3500061E+00
   .0000000E+00   .0000000E+00   .1450000E+00   .2999940E+00   .3500060E+00
   .0000000E+00   .0000000E+00   .1500000E+00   .2999941E+00   .3500059E+00
   .0000000E+00   .0000000E+00   .1550000E+00   .2999941E+00   .3500059E+00
   .0000000E+00   .0000000E+00   .1600000E+00   .2999942E+00   .3500058E+00
   .0000000E+00   .0000000E+00   .1650000E+00   .2999942E+00   .3500058E+00
   .0000000E+00   .0000000E+00   .1700000E+00   .2999943E+00   .3500057E+00
   .0000000E+00   .0000000E+00   .1750000E+00   .2999944E+00   .3500056E+00
   .0000000E+00   .0000000E+00   .1800000E+00   .2999944E+00   .3500056E+00
   .0000000E+00   .0000000E+00   .1850000E+00   .2999945E+00   .3500055E+00
   .0000000E+00   .0000000E+00   .1900000E+00   .2999945E+00   .3500055E+00
   .0000000E+00   .0000000E+00   .1950000E+00   .2999946E+00   .3500054E+00
   .0000000E+00   .0000000E+00   .2000000E+00   .2999946E+00   .3500054E+00
   .0000000E+00   .0000000E+00   .2050000E+00   .2999947E+00   .3500053E+00
   .0000000E+00   .0000000E+00   .2100000E+00   .2999947E+00   .3500053E+00
   .0000000E+00   .0000000E+00   .2150000E+00   .2999948E+00   .3500052E+00
   .0000000E+00   .0000000E+00   .2200000E+00   .2999948E+00   .3500052E+00
   .0000000E+00   .0000000E+00   .2250000E+00   .2999949E+00   .3500051E+00
   .0000000E+00   .0000000E+00   .2300000E+00   .2999949E+00   .3500051E+00
   .0000000E+00   .0000000E+00   .2350000E+00   .2999950E+00   .3500050E+00
   .0000000E+00   .0000000E+00   .2400000E+00   .2999950E+00   .3500050E+00
   .0000000E+00   .0000000E+00   .2450000E+00   .2999951E+00   .3500049E+00
   .0000000E+00   .0000000E+00   .2500000E+00   .2999951E+00   .3500049E+00
   .0000000E+00   .0000000E+00   .2550000E+00   .2999952E+00   .3500048E+00
   .0000000E+00   .0000000E+00   .2600000E+00   .2999952E+00   .3500048E+00
   .0000000E+00   .0000000E+00   .2650000E+00   .2999953E+00   .3500047E+00
   .0000000E+00   .0000000E+00   .2700000E+00   .2999953E+00   .3500047E+00
   .0000000E+00   .0000000E+00   .2750000E+00   .2999953E+00   .3500047E+00
   .0000000E+00   .0000000E+00   .2800000E+00   .2999954E+00   .3500046E+00
   .0000000E+00   .0000000E+00   .2850000E+00   .2999954E+00   .3500046E+00
   .0000000E+00   .0000000E+00   .2900000E+00   .2999954E+00   .3500046E+00
   .0000000E+00   .0000000E+00   .2950000E+00   .2999955E+00   .3500045E+00
   .0000000E+00   .0000000E+00   .3000000E+00   .2999955E+00   .3500045E+00
   .0000000E+00   .0000000E+00   .3050000E+00   .2999955E+00   .3500045E+00
   .0000000E+00   .0000000E+00   .3100000E+00   .2999955E+00   .3500045E+00
   .0000000E+00   .0000000E+00   .3150000E+00   .2999955E+00   .3500045E+00
   .0000000E+00   .0000000E+00   .3200000E+00   .2999955E+00   .3500045E+00
   .0000000E+00   .0000000E+00   .3250000E+00   .2999956E+00   .3500044E+00
   .0000000E+00   .0000000E+00   .3300000E+00   .2999956E+00   .3500044E+00
   .0000000E+00   .0000000E+00   .3350000E+00   .2999956E+00   .3500044E+00
   .0000000E+00   .0000000E+00   .3400000E+00   .2999956E+00   .3500044E+00
   .0000000E+00   .0000000E+00   .3450000E+00   .2999956E+00   .3500044E+00
   .0000000E+00   .0000000E+00   .3500000E+00   .2999956E+00   .3500044E+00
   .0000000E+00   .0000000E+00   .3550000E+00   .2999955E+00   .3500045E+00
   .0000000E+00   .0000000E+00   .3600000E+00   .2999955E+00   .3500045E+00
   .0000000E+00   .0000000E+00   .3650000E+00   .2999955E+00   .3500045E+00
   .0000000E+00   .0000000E+00   .3700000E+00   .2999955E+00   .3500045E+00
   .0000000E+00   .0000000E+00   .3750000E+00   .2999955E+00   .3500045E+00
   .0000000E+00   .0000000E+00   .3800000E+00   .2999956E+00   .3500044E+00
   .0000000E+00   .0000000E+00   .3850000E+00   .2999957E+00   .3500043E+00
   .0000000E+00   .0000000E+00   .3900000E+00   .2999959E+00   .3500041E+00
   .0000000E+00   .0000000E+00   .3950000E+00   .2999962E+00   .3500038E+00
   .0000000E+00   .0000000E+00   .4000000E+00   .2999965E+00   .3500035E+00
