title = "dataset perm1"
variables = "x", "y", "z", "h_w", "p_w", "s_w", "theta_a"
zone t = "Flow variables, solution time =  2.500E+02 years       " i =   81, j =    1, k =    1,  f=point
   .0000000E+00   .0000000E+00   .0000000E+00   .1400000E-02   .1400000E-02   .1000000E+01   .6500000E+00
   .0000000E+00   .0000000E+00   .5000000E-02   .1394210E-02  -.3605790E-02   .1000000E+01   .6500000E+00
   .0000000E+00   .0000000E+00   .1000000E-01   .1388420E-02  -.8611580E-02   .1000000E+01   .6500000E+00
   .0000000E+00   .0000000E+00   .1500000E-01   .1382630E-02  -.1361737E-01   .1000000E+01   .6500000E+00
   .0000000E+00   .0000000E+00   .2000000E-01   .1376841E-02  -.1862316E-01   .1000000E+01   .6500000E+00
   .0000000E+00   .0000000E+00   .2500000E-01   .1371051E-02  -.2362895E-01   .1000000E+01   .6500000E+00
   .0000000E+00   .0000000E+00   .3000000E-01   .1365261E-02  -.2863474E-01   .1000000E+01   .6500000E+00
   .0000000E+00   .0000000E+00   .3500000E-01   .1359471E-02  -.3364053E-01   .1000000E+01   .6500000E+00
   .0000000E+00   .0000000E+00   .4000000E-01   .1353681E-02  -.3864632E-01   .1000000E+01   .6500000E+00
   .0000000E+00   .0000000E+00   .4500000E-01   .1347891E-02  -.4365211E-01   .1000000E+01   .6500000E+00
   .0000000E+00   .0000000E+00   .5000000E-01   .1342102E-02  -.4865790E-01   .1000000E+01   .6500000E+00
   .0000000E+00   .0000000E+00   .5500000E-01   .1336312E-02  -.5366369E-01   .1000000E+01   .6500000E+00
   .0000000E+00   .0000000E+00   .6000000E-01   .1330522E-02  -.5866948E-01   .1000000E+01   .6500000E+00
   .0000000E+00   .0000000E+00   .6500000E-01   .1324732E-02  -.6367527E-01   .1000000E+01   .6500000E+00
   .0000000E+00   .0000000E+00   .7000000E-01   .1318942E-02  -.6868106E-01   .1000000E+01   .6500000E+00
   .0000000E+00   .0000000E+00   .7500000E-01   .1313152E-02  -.7368685E-01   .1000000E+01   .6500000E+00
   .0000000E+00   .0000000E+00   .8000000E-01   .1307363E-02  -.7869264E-01   .1000000E+01   .6500000E+00
   .0000000E+00   .0000000E+00   .8500000E-01   .1301573E-02  -.8369843E-01   .1000000E+01   .6500000E+00
   .0000000E+00   .0000000E+00   .9000000E-01   .1295783E-02  -.8870422E-01   .1000000E+01   .6500000E+00
   .0000000E+00   .0000000E+00   .9500000E-01   .1289993E-02  -.9371001E-01   .1000000E+01   .6500000E+00
   .0000000E+00   .0000000E+00   .1000000E+00   .1284203E-02  -.9871580E-01   .1000000E+01   .6500000E+00
   .0000000E+00   .0000000E+00   .1050000E+00   .1278413E-02  -.1037216E+00   .1000000E+01   .6500000E+00
   .0000000E+00   .0000000E+00   .1100000E+00   .1272624E-02  -.1087274E+00   .1000000E+01   .6500000E+00
   .0000000E+00   .0000000E+00   .1150000E+00   .1266834E-02  -.1137332E+00   .1000000E+01   .6500000E+00
   .0000000E+00   .0000000E+00   .1200000E+00   .1261044E-02  -.1187390E+00   .1000000E+01   .6500000E+00
   .0000000E+00   .0000000E+00   .1250000E+00   .1255254E-02  -.1237447E+00   .1000000E+01   .6500000E+00
   .0000000E+00   .0000000E+00   .1300000E+00   .1249464E-02  -.1287505E+00   .1000000E+01   .6500000E+00
   .0000000E+00   .0000000E+00   .1350000E+00   .1243674E-02  -.1337563E+00   .1000000E+01   .6500000E+00
   .0000000E+00   .0000000E+00   .1400000E+00   .1237885E-02  -.1387621E+00   .1000000E+01   .6500000E+00
   .0000000E+00   .0000000E+00   .1450000E+00   .1232095E-02  -.1437679E+00   .1000000E+01   .6500000E+00
   .0000000E+00   .0000000E+00   .1500000E+00   .1226305E-02  -.1487737E+00   .1000000E+01   .6500000E+00
   .0000000E+00   .0000000E+00   .1550000E+00   .1220515E-02  -.1537795E+00   .1000000E+01   .6500000E+00
   .0000000E+00   .0000000E+00   .1600000E+00   .1214725E-02  -.1587853E+00   .1000000E+01   .6500000E+00
   .0000000E+00   .0000000E+00   .1650000E+00   .1208935E-02  -.1637911E+00   .1000000E+01   .6500000E+00
   .0000000E+00   .0000000E+00   .1700000E+00   .1203146E-02  -.1687969E+00   .1000000E+01   .6500000E+00
   .0000000E+00   .0000000E+00   .1750000E+00   .1197356E-02  -.1738026E+00   .1000000E+01   .6500000E+00
   .0000000E+00   .0000000E+00   .1800000E+00   .1191566E-02  -.1788084E+00   .1000000E+01   .6500000E+00
   .0000000E+00   .0000000E+00   .1850000E+00   .1185776E-02  -.1838142E+00   .1000000E+01   .6500000E+00
   .0000000E+00   .0000000E+00   .1900000E+00   .1179986E-02  -.1888200E+00   .1000000E+01   .6500000E+00
   .0000000E+00   .0000000E+00   .1950000E+00   .1174196E-02  -.1938258E+00   .1000000E+01   .6500000E+00
   .0000000E+00   .0000000E+00   .2000000E+00   .1168407E-02  -.1988316E+00   .1000000E+01   .6500000E+00
   .0000000E+00   .0000000E+00   .2050000E+00   .1162617E-02  -.2038374E+00   .1000000E+01   .6500000E+00
   .0000000E+00   .0000000E+00   .2100000E+00   .1156827E-02  -.2088432E+00   .1000000E+01   .6500000E+00
   .0000000E+00   .0000000E+00   .2150000E+00   .1151037E-02  -.2138490E+00   .1000000E+01   .6500000E+00
   .0000000E+00   .0000000E+00   .2200000E+00   .1145247E-02  -.2188548E+00   .1000000E+01   .6500000E+00
   .0000000E+00   .0000000E+00   .2250000E+00   .1139457E-02  -.2238605E+00   .1000000E+01   .6500000E+00
   .0000000E+00   .0000000E+00   .2300000E+00   .1133668E-02  -.2288663E+00   .1000000E+01   .6500000E+00
   .0000000E+00   .0000000E+00   .2350000E+00   .1127878E-02  -.2338721E+00   .1000000E+01   .6500000E+00
   .0000000E+00   .0000000E+00   .2400000E+00   .1122088E-02  -.2388779E+00   .1000000E+01   .6500000E+00
   .0000000E+00   .0000000E+00   .2450000E+00   .1116298E-02  -.2438837E+00   .1000000E+01   .6500000E+00
   .0000000E+00   .0000000E+00   .2500000E+00   .1110508E-02  -.2488895E+00   .1000000E+01   .6500000E+00
   .0000000E+00   .0000000E+00   .2550000E+00   .1104718E-02  -.2538953E+00   .1000000E+01   .6500000E+00
   .0000000E+00   .0000000E+00   .2600000E+00   .1098929E-02  -.2589011E+00   .1000000E+01   .6500000E+00
   .0000000E+00   .0000000E+00   .2650000E+00   .1093139E-02  -.2639069E+00   .1000000E+01   .6500000E+00
   .0000000E+00   .0000000E+00   .2700000E+00   .1087349E-02  -.2689127E+00   .1000000E+01   .6500000E+00
   .0000000E+00   .0000000E+00   .2750000E+00   .1081559E-02  -.2739184E+00   .1000000E+01   .6500000E+00
   .0000000E+00   .0000000E+00   .2800000E+00   .1075769E-02  -.2789242E+00   .1000000E+01   .6500000E+00
   .0000000E+00   .0000000E+00   .2850000E+00   .1069979E-02  -.2839300E+00   .1000000E+01   .6500000E+00
   .0000000E+00   .0000000E+00   .2900000E+00   .1064190E-02  -.2889358E+00   .1000000E+01   .6500000E+00
   .0000000E+00   .0000000E+00   .2950000E+00   .1058400E-02  -.2939416E+00   .1000000E+01   .6500000E+00
   .0000000E+00   .0000000E+00   .3000000E+00   .1052610E-02  -.2989474E+00   .1000000E+01   .6500000E+00
   .0000000E+00   .0000000E+00   .3050000E+00   .1046820E-02  -.3039532E+00   .1000000E+01   .6500000E+00
   .0000000E+00   .0000000E+00   .3100000E+00   .1041030E-02  -.3089590E+00   .1000000E+01   .6500000E+00
   .0000000E+00   .0000000E+00   .3150000E+00   .1035240E-02  -.3139648E+00   .1000000E+01   .6500000E+00
   .0000000E+00   .0000000E+00   .3200000E+00   .1029451E-02  -.3189705E+00   .1000000E+01   .6500000E+00
   .0000000E+00   .0000000E+00   .3250000E+00   .1023661E-02  -.3239763E+00   .1000000E+01   .6500000E+00
   .0000000E+00   .0000000E+00   .3300000E+00   .1017736E-02  -.3289823E+00   .1000000E+01   .6455863E+00
   .0000000E+00   .0000000E+00   .3350000E+00   .1011129E-02  -.3339889E+00   .1000000E+01   .6293210E+00
   .0000000E+00   .0000000E+00   .3400000E+00   .1002677E-02  -.3389973E+00   .1000000E+01   .5986318E+00
   .0000000E+00   .0000000E+00   .3450000E+00   .9902705E-03  -.3440097E+00   .1000000E+01   .5547929E+00
   .0000000E+00   .0000000E+00   .3500000E+00   .9702278E-03  -.3490298E+00   .1000000E+01   .5036930E+00
   .0000000E+00   .0000000E+00   .3550000E+00   .9371494E-03  -.3540629E+00   .1000000E+01   .4545040E+00
   .0000000E+00   .0000000E+00   .3600000E+00   .8855022E-03  -.3591145E+00   .1000000E+01   .4149893E+00
   .0000000E+00   .0000000E+00   .3650000E+00   .8126875E-03  -.3641873E+00   .1000000E+01   .3877347E+00
   .0000000E+00   .0000000E+00   .3700000E+00   .7206259E-03  -.3692794E+00   .1000000E+01   .3709254E+00
   .0000000E+00   .0000000E+00   .3750000E+00   .6141576E-03  -.3743858E+00   .1000000E+01   .3612866E+00
   .0000000E+00   .0000000E+00   .3800000E+00   .4983539E-03  -.3795016E+00   .1000000E+01   .3559950E+00
   .0000000E+00   .0000000E+00   .3850000E+00   .3770470E-03  -.3846230E+00   .1000000E+01   .3531623E+00
   .0000000E+00   .0000000E+00   .3900000E+00   .2526808E-03  -.3897473E+00   .1000000E+01   .3516744E+00
   .0000000E+00   .0000000E+00   .3950000E+00   .1266982E-03  -.3948733E+00   .1000000E+01   .3509327E+00
   .0000000E+00   .0000000E+00   .4000000E+00   .0000000E+00  -.4000000E+00   .1000000E+01   .3506985E+00
