title = "dataset perm1"
variables = "x", "y", "z","calcite","porosity"
zone t = "phi_i, T =  2.500E+02 years", i =   81, j =    1, k =    1,  f=point
   .0000000E+00   .0000000E+00   .0000000E+00   .1000000E-09   .6500000E+00
   .0000000E+00   .0000000E+00   .5000000E-02   .1000000E-09   .6500000E+00
   .0000000E+00   .0000000E+00   .1000000E-01   .1000000E-09   .6500000E+00
   .0000000E+00   .0000000E+00   .1500000E-01   .1000000E-09   .6500000E+00
   .0000000E+00   .0000000E+00   .2000000E-01   .1000000E-09   .6500000E+00
   .0000000E+00   .0000000E+00   .2500000E-01   .1000000E-09   .6500000E+00
   .0000000E+00   .0000000E+00   .3000000E-01   .1000000E-09   .6500000E+00
   .0000000E+00   .0000000E+00   .3500000E-01   .1000000E-09   .6500000E+00
   .0000000E+00   .0000000E+00   .4000000E-01   .1000000E-09   .6500000E+00
   .0000000E+00   .0000000E+00   .4500000E-01   .1000000E-09   .6500000E+00
   .0000000E+00   .0000000E+00   .5000000E-01   .1000000E-09   .6500000E+00
   .0000000E+00   .0000000E+00   .5500000E-01   .1000000E-09   .6500000E+00
   .0000000E+00   .0000000E+00   .6000000E-01   .1000000E-09   .6500000E+00
   .0000000E+00   .0000000E+00   .6500000E-01   .1000000E-09   .6500000E+00
   .0000000E+00   .0000000E+00   .7000000E-01   .1000000E-09   .6500000E+00
   .0000000E+00   .0000000E+00   .7500000E-01   .1000000E-09   .6500000E+00
   .0000000E+00   .0000000E+00   .8000000E-01   .1000000E-09   .6500000E+00
   .0000000E+00   .0000000E+00   .8500000E-01   .1000000E-09   .6500000E+00
   .0000000E+00   .0000000E+00   .9000000E-01   .1000000E-09   .6500000E+00
   .0000000E+00   .0000000E+00   .9500000E-01   .1000000E-09   .6500000E+00
   .0000000E+00   .0000000E+00   .1000000E+00   .1000000E-09   .6500000E+00
   .0000000E+00   .0000000E+00   .1050000E+00   .1000000E-09   .6500000E+00
   .0000000E+00   .0000000E+00   .1100000E+00   .1000000E-09   .6500000E+00
   .0000000E+00   .0000000E+00   .1150000E+00   .1000000E-09   .6500000E+00
   .0000000E+00   .0000000E+00   .1200000E+00   .1000000E-09   .6500000E+00
   .0000000E+00   .0000000E+00   .1250000E+00   .1000000E-09   .6500000E+00
   .0000000E+00   .0000000E+00   .1300000E+00   .1000000E-09   .6500000E+00
   .0000000E+00   .0000000E+00   .1350000E+00   .1000000E-09   .6500000E+00
   .0000000E+00   .0000000E+00   .1400000E+00   .1000000E-09   .6500000E+00
   .0000000E+00   .0000000E+00   .1450000E+00   .1000000E-09   .6500000E+00
   .0000000E+00   .0000000E+00   .1500000E+00   .1000000E-09   .6500000E+00
   .0000000E+00   .0000000E+00   .1550000E+00   .1000000E-09   .6500000E+00
   .0000000E+00   .0000000E+00   .1600000E+00   .1000000E-09   .6500000E+00
   .0000000E+00   .0000000E+00   .1650000E+00   .1000000E-09   .6500000E+00
   .0000000E+00   .0000000E+00   .1700000E+00   .1000000E-09   .6500000E+00
   .0000000E+00   .0000000E+00   .1750000E+00   .1000000E-09   .6500000E+00
   .0000000E+00   .0000000E+00   .1800000E+00   .1000000E-09   .6500000E+00
   .0000000E+00   .0000000E+00   .1850000E+00   .1000000E-09   .6500000E+00
   .0000000E+00   .0000000E+00   .1900000E+00   .1000000E-09   .6500000E+00
   .0000000E+00   .0000000E+00   .1950000E+00   .1000000E-09   .6500000E+00
   .0000000E+00   .0000000E+00   .2000000E+00   .1000000E-09   .6500000E+00
   .0000000E+00   .0000000E+00   .2050000E+00   .1000000E-09   .6500000E+00
   .0000000E+00   .0000000E+00   .2100000E+00   .1000000E-09   .6500000E+00
   .0000000E+00   .0000000E+00   .2150000E+00   .1000000E-09   .6500000E+00
   .0000000E+00   .0000000E+00   .2200000E+00   .1000000E-09   .6500000E+00
   .0000000E+00   .0000000E+00   .2250000E+00   .1000000E-09   .6500000E+00
   .0000000E+00   .0000000E+00   .2300000E+00   .1000000E-09   .6500000E+00
   .0000000E+00   .0000000E+00   .2350000E+00   .1000000E-09   .6500000E+00
   .0000000E+00   .0000000E+00   .2400000E+00   .1000000E-09   .6500000E+00
   .0000000E+00   .0000000E+00   .2450000E+00   .1000000E-09   .6500000E+00
   .0000000E+00   .0000000E+00   .2500000E+00   .1000000E-09   .6500000E+00
   .0000000E+00   .0000000E+00   .2550000E+00   .1000000E-09   .6500000E+00
   .0000000E+00   .0000000E+00   .2600000E+00   .1000000E-09   .6500000E+00
   .0000000E+00   .0000000E+00   .2650000E+00   .1000000E-09   .6500000E+00
   .0000000E+00   .0000000E+00   .2700000E+00   .1000000E-09   .6500000E+00
   .0000000E+00   .0000000E+00   .2750000E+00   .1000000E-09   .6500000E+00
   .0000000E+00   .0000000E+00   .2800000E+00   .1000000E-09   .6500000E+00
   .0000000E+00   .0000000E+00   .2850000E+00   .1000000E-09   .6500000E+00
   .0000000E+00   .0000000E+00   .2900000E+00   .1000000E-09   .6500000E+00
   .0000000E+00   .0000000E+00   .2950000E+00   .1000000E-09   .6500000E+00
   .0000000E+00   .0000000E+00   .3000000E+00   .1000000E-09   .6500000E+00
   .0000000E+00   .0000000E+00   .3050000E+00   .1000000E-09   .6500000E+00
   .0000000E+00   .0000000E+00   .3100000E+00   .1000000E-09   .6500000E+00
   .0000000E+00   .0000000E+00   .3150000E+00   .1000000E-09   .6500000E+00
   .0000000E+00   .0000000E+00   .3200000E+00   .1000000E-09   .6500000E+00
   .0000000E+00   .0000000E+00   .3250000E+00   .1000000E-09   .6500000E+00
   .0000000E+00   .0000000E+00   .3300000E+00   .3381220E-02   .6455863E+00
   .0000000E+00   .0000000E+00   .3350000E+00   .1779484E-01   .6293210E+00
   .0000000E+00   .0000000E+00   .3400000E+00   .4616126E-01   .5986318E+00
   .0000000E+00   .0000000E+00   .3450000E+00   .8776464E-01   .5547929E+00
   .0000000E+00   .0000000E+00   .3500000E+00   .1375855E+00   .5036930E+00
   .0000000E+00   .0000000E+00   .3550000E+00   .1871007E+00   .4545040E+00
   .0000000E+00   .0000000E+00   .3600000E+00   .2282696E+00   .4149893E+00
   .0000000E+00   .0000000E+00   .3650000E+00   .2575802E+00   .3877347E+00
   .0000000E+00   .0000000E+00   .3700000E+00   .2761288E+00   .3709254E+00
   .0000000E+00   .0000000E+00   .3750000E+00   .2869737E+00   .3612866E+00
   .0000000E+00   .0000000E+00   .3800000E+00   .2930145E+00   .3559950E+00
   .0000000E+00   .0000000E+00   .3850000E+00   .2962847E+00   .3531623E+00
   .0000000E+00   .0000000E+00   .3900000E+00   .2980179E+00   .3516744E+00
   .0000000E+00   .0000000E+00   .3950000E+00   .2988880E+00   .3509327E+00
   .0000000E+00   .0000000E+00   .4000000E+00   .2991638E+00   .3506985E+00
