title = "dataset surfa"
variables = "pH","h+1","ha","=soh","oh-","a-"
zone t = "C_j, X_i, pH-sweep from 0-12", f=point
  0.0000000E+00  0.1000000E+01  0.9989911E-07  0.9999455E-08  0.1004616E-13  0.9989911E-12
  0.2400000E+00  0.5754399E+00  0.9982481E-07  0.1737577E-07  0.1745822E-13  0.1734756E-11
  0.4800000E+00  0.3311311E+00  0.9969599E-07  0.3019171E-07  0.3033891E-13  0.3010771E-11
  0.7200000E+00  0.1905461E+00  0.9947299E-07  0.5245538E-07  0.5272299E-13  0.5220417E-11
  0.9600000E+00  0.1096478E+00  0.9908806E-07  0.9112140E-07  0.9162205E-13  0.9036938E-11
  0.1200000E+01  0.6309573E-01  0.9842686E-07  0.1582434E-06  0.1592209E-12  0.1559961E-10
  0.1440000E+01  0.3630781E-01  0.9730063E-07  0.2746718E-06  0.2766942E-12  0.2679882E-10
  0.1680000E+01  0.2089296E-01  0.9540950E-07  0.4763506E-06  0.4808393E-12  0.4566586E-10
  0.1920000E+01  0.1202264E-01  0.9230886E-07  0.8248781E-06  0.8356030E-12  0.7677917E-10
  0.2160000E+01  0.6918310E-02  0.8741879E-07  0.1424733E-05  0.1452112E-11  0.1263586E-09
  0.2400000E+01  0.3981072E-02  0.8015975E-07  0.2449969E-05  0.2523481E-11  0.2013522E-09
  0.2640000E+01  0.2290868E-02  0.7029779E-07  0.4181547E-05  0.4385307E-11  0.3068610E-09
  0.2880000E+01  0.1318257E-02  0.5839691E-07  0.7048335E-05  0.7620790E-11  0.4429859E-09
  0.3120000E+01  0.7585776E-03  0.4592779E-07  0.1164148E-04  0.1324342E-10  0.6054462E-09
  0.3360000E+01  0.4365158E-03  0.3465401E-07  0.1862761E-04  0.2301442E-10  0.7938774E-09
  0.3600000E+01  0.2511886E-03  0.2573786E-07  0.2845516E-04  0.3999447E-10  0.1024643E-08
  0.3840000E+01  0.1445440E-03  0.1939727E-07  0.4086181E-04  0.6950243E-10  0.1341963E-08
  0.4080000E+01  0.8317638E-04  0.1520881E-07  0.5454908E-04  0.1207814E-09  0.1828502E-08
  0.4320000E+01  0.4786301E-04  0.1255268E-07  0.6757499E-04  0.2098940E-09  0.2622626E-08
  0.4560000E+01  0.2754229E-04  0.1087302E-07  0.7834000E-04  0.3647539E-09  0.3947754E-08
  0.4800000E+01  0.1584893E-04  0.9750807E-08  0.8624604E-04  0.6338697E-09  0.6152344E-08
  0.5040000E+01  0.9120108E-05  0.8886724E-08  0.9156263E-04  0.1101539E-08  0.9744099E-08
  0.5280000E+01  0.5248075E-05  0.8065641E-08  0.9492810E-04  0.1914256E-08  0.1536876E-07
  0.5520000E+01  0.3019952E-05  0.7138379E-08  0.9697472E-04  0.3326596E-08  0.2363739E-07
  0.5760000E+01  0.1737801E-05  0.6034031E-08  0.9818269E-04  0.5780960E-08  0.3472223E-07
  0.6000000E+01  0.1000000E-05  0.4787673E-08  0.9886975E-04  0.1004616E-07  0.4787673E-07
  0.6240000E+01  0.5754399E-06  0.3533491E-08  0.9922617E-04  0.1745822E-07  0.6140503E-07
  0.6480000E+01  0.3311311E-06  0.2431040E-08  0.9935148E-04  0.3033891E-07  0.7341622E-07
  0.6720000E+01  0.1905461E-06  0.1577072E-08  0.9927880E-04  0.5272299E-07  0.8276594E-07
  0.6960000E+01  0.1096478E-06  0.9794372E-09  0.9898368E-04  0.9162205E-07  0.8932573E-07
  0.7200000E+01  0.6309573E-07  0.5905730E-09  0.9837759E-04  0.1592209E-06  0.9359951E-07
  0.7440000E+01  0.3630781E-07  0.3494652E-09  0.9728644E-04  0.2766942E-06  0.9625071E-07
  0.7680000E+01  0.2089296E-07  0.2044272E-09  0.9541587E-04  0.4808393E-06  0.9784501E-07
  0.7920000E+01  0.1202264E-07  0.1187655E-09  0.9231410E-04  0.8356030E-06  0.9878486E-07
  0.8160000E+01  0.6918310E-08  0.6872018E-10  0.8736930E-04  0.1452112E-05  0.9933088E-07
  0.8400000E+01  0.3981072E-08  0.3966870E-10  0.7992492E-04  0.2523481E-05  0.9964328E-07
  0.8640000E+01  0.2290868E-08  0.2286697E-10  0.6961489E-04  0.4385307E-05  0.9981794E-07
  0.8880000E+01  0.1318257E-08  0.1317096E-10  0.5686631E-04  0.7620790E-05  0.9991193E-07
  0.9120000E+01  0.7585776E-09  0.7582719E-11  0.4313771E-04  0.1324342E-04  0.9995971E-07
  0.9360000E+01  0.4365158E-09  0.4364389E-11  0.3038849E-04  0.2301442E-04  0.9998237E-07
  0.9600000E+01  0.2511886E-09  0.2511697E-11  0.2007692E-04  0.3999447E-04  0.9999245E-07
  0.9840000E+01  0.1445440E-09  0.1445392E-11  0.1262954E-04  0.6950243E-04  0.9999673E-07
  0.1008000E+02  0.8317638E-10  0.8317515E-12  0.7679288E-05  0.1207814E-03  0.9999853E-07
  0.1032000E+02  0.4786301E-10  0.4786268E-12  0.4567890E-05  0.2098940E-03  0.9999930E-07
  0.1056000E+02  0.2754229E-10  0.2754219E-12  0.2680529E-05  0.3647539E-03  0.9999965E-07
  0.1080000E+02  0.1584893E-10  0.1584890E-12  0.1560239E-05  0.6338697E-03  0.9999982E-07
  0.1104000E+02  0.9120108E-11  0.9120099E-13  0.9038104E-06  0.1101539E-02  0.9999990E-07
  0.1128000E+02  0.5248075E-11  0.5248072E-13  0.5220919E-06  0.1914256E-02  0.9999994E-07
  0.1152000E+02  0.3019952E-11  0.3019951E-13  0.3010999E-06  0.3326596E-02  0.9999997E-07
  0.1176000E+02  0.1737801E-11  0.1737801E-13  0.1734867E-06  0.5780960E-02  0.9999998E-07
  0.1200000E+02  0.1000000E-11  0.9999999E-14  0.9990474E-07  0.1004616E-01  0.9999999E-07
