title = "dataset surfa"
variables = "pH","=soh","=soh2+","=so-","=sa"
zone t = "S_i, pH-sweep from 0-12", f=point
  0.0000000E+00  0.9999455E-08  0.9999455E-04  0.9999455E-17  0.9989366E-10
  0.2400000E+00  0.1737577E-07  0.9998710E-04  0.3019562E-16  0.1734533E-09
  0.4800000E+00  0.3019171E-07  0.9997416E-04  0.9117751E-16  0.3009993E-09
  0.7200000E+00  0.5245538E-07  0.9995167E-04  0.2752898E-15  0.5217894E-09
  0.9600000E+00  0.9112140E-07  0.9991263E-04  0.8310370E-15  0.9029042E-09
  0.1200000E+01  0.1582434E-06  0.9984485E-04  0.2507989E-14  0.1557540E-08
  0.1440000E+01  0.2746718E-06  0.9972731E-04  0.7565090E-14  0.2672574E-08
  0.1680000E+01  0.4763506E-06  0.9952375E-04  0.2279957E-13  0.4544837E-08
  0.1920000E+01  0.8248781E-06  0.9917216E-04  0.6861037E-13  0.7614356E-08
  0.2160000E+01  0.1424733E-05  0.9856746E-04  0.2059366E-12  0.1245485E-07
  0.2400000E+01  0.2449969E-05  0.9753504E-04  0.6154045E-12  0.1963889E-07
  0.2640000E+01  0.4181547E-05  0.9579371E-04  0.1825311E-11  0.2939535E-07
  0.2880000E+01  0.7048335E-05  0.9291515E-04  0.5346709E-11  0.4116010E-07
  0.3120000E+01  0.1164148E-04  0.8830968E-04  0.1534646E-10  0.5346676E-07
  0.3360000E+01  0.1862761E-04  0.8131245E-04  0.4267338E-10  0.6455212E-07
  0.3600000E+01  0.2845516E-04  0.7147614E-04  0.1132820E-09  0.7323750E-07
  0.3840000E+01  0.4086181E-04  0.5906329E-04  0.2826947E-09  0.7926077E-07
  0.4080000E+01  0.5454908E-04  0.4537195E-04  0.6558242E-09  0.8296268E-07
  0.4320000E+01  0.6757499E-04  0.3234342E-04  0.1411842E-08  0.8482470E-07
  0.4560000E+01  0.7834000E-04  0.2157663E-04  0.2844353E-08  0.8517923E-07
  0.4800000E+01  0.8624604E-04  0.1366908E-04  0.5441757E-08  0.8409685E-07
  0.5040000E+01  0.9156263E-04  0.8350611E-05  0.1003964E-07  0.8136918E-07
  0.5280000E+01  0.9492810E-04  0.4981897E-05  0.1808818E-07  0.7656560E-07
  0.5520000E+01  0.9697472E-04  0.2928590E-05  0.3211135E-07  0.6922423E-07
  0.5760000E+01  0.9818269E-04  0.1706220E-05  0.5649824E-07  0.5924374E-07
  0.6000000E+01  0.9886975E-04  0.9886975E-06  0.9886975E-07  0.4733560E-07
  0.6240000E+01  0.9922617E-04  0.5709870E-06  0.1724353E-06  0.3506148E-07
  0.6480000E+01  0.9935148E-04  0.3289837E-06  0.3000367E-06  0.2415274E-07
  0.6720000E+01  0.9927880E-04  0.1891719E-06  0.5210225E-06  0.1565699E-07
  0.6960000E+01  0.9898368E-04  0.1085334E-06  0.9027419E-06  0.9694830E-08
  0.7200000E+01  0.9837759E-04  0.6207206E-07  0.1559180E-05  0.5809915E-08
  0.7440000E+01  0.9728644E-04  0.3532257E-07  0.2679491E-05  0.3399823E-08
  0.7680000E+01  0.9541587E-04  0.1993520E-07  0.4566891E-05  0.1950560E-08
  0.7920000E+01  0.9231410E-04  0.1109860E-07  0.7678353E-05  0.1096373E-08
  0.8160000E+01  0.8736930E-04  0.6044479E-08  0.1262871E-04  0.6004034E-09
  0.8400000E+01  0.7992492E-04  0.3181868E-08  0.2007623E-04  0.3170518E-09
  0.8640000E+01  0.6961489E-04  0.1594785E-08  0.3038800E-04  0.1591882E-09
  0.8880000E+01  0.5686631E-04  0.7496440E-09  0.4313751E-04  0.7489838E-10
  0.9120000E+01  0.4313771E-04  0.3272330E-09  0.5686658E-04  0.3271012E-10
  0.9360000E+01  0.3038849E-04  0.1326506E-09  0.6961601E-04  0.1326272E-10
  0.9600000E+01  0.2007692E-04  0.5043095E-10  0.7992767E-04  0.5042714E-11
  0.9840000E+01  0.1262954E-04  0.1825524E-10  0.8737509E-04  0.1825465E-11
  0.1008000E+02  0.7679288E-05  0.6387354E-11  0.9232535E-04  0.6387260E-12
  0.1032000E+02  0.4567890E-05  0.2186330E-11  0.9543676E-04  0.2186315E-12
  0.1056000E+02  0.2680529E-05  0.7382789E-12  0.9732412E-04  0.7382764E-13
  0.1080000E+02  0.1560239E-05  0.2472812E-12  0.9844441E-04  0.2472807E-13
  0.1104000E+02  0.9038104E-06  0.8242849E-13  0.9910084E-04  0.8242841E-14
  0.1128000E+02  0.5220919E-06  0.2739977E-13  0.9948256E-04  0.2739976E-14
  0.1152000E+02  0.3010999E-06  0.9093072E-14  0.9970355E-04  0.9093069E-15
  0.1176000E+02  0.1734867E-06  0.3014853E-14  0.9983116E-04  0.3014852E-15
  0.1200000E+02  0.9990474E-07  0.9990474E-15  0.9990474E-04  0.9990473E-16
