title = "dataset arsenate_no_edl"
variables = "pH","Hfo_wH2AsO4","Hfo_wHAsO4-","Hfo_wOHAsO4-3","Hfo_wOH2+","Hfo_wO-","Hfo_wOH","H3AsO4"
zone t = "S_i, pH-sweep from 2-14", f=point
           2      -2.0969e+00     -5.8969e+00     -1.4828e+01     -2.6994e+00     -1.4699e+01     -7.8794e+00    -2.9419e+00
  2.5000e+00      -2.0758e+00     -5.3758e+00     -1.3307e+01     -2.7966e+00     -1.3797e+01     -7.4766e+00    -3.3238e+00
           3      -2.0682e+00     -4.8682e+00     -1.1800e+01     -2.8419e+00     -1.2842e+01     -7.0219e+00    -3.7708e+00
  3.5000e+00      -2.0668e+00     -4.3668e+00     -1.0298e+01     -2.8593e+00     -1.1859e+01     -6.5393e+00    -4.2520e+00
           4      -2.0703e+00     -3.8703e+00     -8.8018e+00     -2.8667e+00     -1.0867e+01     -6.0467e+00    -4.7481e+00
  4.5000e+00      -2.0837e+00     -3.3837e+00     -7.3152e+00     -2.8740e+00     -9.8740e+00     -5.5540e+00    -5.2543e+00
           5      -2.1242e+00     -2.9242e+00     -5.8557e+00     -2.8904e+00     -8.8904e+00     -5.0704e+00    -5.7784e+00
  5.5000e+00      -2.2333e+00     -2.5333e+00     -4.4649e+00     -2.9320e+00     -7.9320e+00     -4.6120e+00    -6.3460e+00
           6      -2.4887e+00     -2.2887e+00     -3.2202e+00     -3.0245e+00     -7.0245e+00     -4.2045e+00    -7.0092e+00
  6.5000e+00      -3.1048e+00     -2.4048e+00     -2.3364e+00     -3.2582e+00     -6.2582e+00     -3.9382e+00    -7.8921e+00
           7      -4.3187e+00     -3.1187e+00     -2.0504e+00     -3.7650e+00     -5.7650e+00     -3.9450e+00    -9.0999e+00
  7.5000e+00      -5.7774e+00     -4.0774e+00     -2.0091e+00     -4.4180e+00     -5.4180e+00     -4.0980e+00    -1.0406e+01
           8      -7.2714e+00     -5.0714e+00     -2.0031e+00     -5.1422e+00     -5.1422e+00     -4.3222e+00    -1.1675e+01
  8.5000e+00      -8.7700e+00     -6.0700e+00     -2.0017e+00     -5.9294e+00     -4.9294e+00     -4.6094e+00    -1.2887e+01
           9      -1.0269e+01     -7.0695e+00     -2.0012e+00     -6.7886e+00     -4.7886e+00     -4.9686e+00    -1.4027e+01
  9.5000e+00      -1.1769e+01     -8.0693e+00     -2.0010e+00     -7.7146e+00     -4.7146e+00     -5.3946e+00    -1.5101e+01
          10      -1.3269e+01     -9.0693e+00     -2.0010e+00     -8.6744e+00     -4.6744e+00     -5.8544e+00    -1.6141e+01
  1.0500e+01      -1.4769e+01     -1.0069e+01     -2.0010e+00     -9.6287e+00     -4.6287e+00     -6.3087e+00    -1.7187e+01
          11      -1.6270e+01     -1.1070e+01     -2.0013e+00     -1.0539e+01     -4.5391e+00     -6.7191e+00    -1.8277e+01
  1.1500e+01      -1.7770e+01     -1.2070e+01     -2.0018e+00     -1.1381e+01     -4.3813e+00     -7.0613e+00    -1.9435e+01
          12      -1.9271e+01     -1.3071e+01     -2.0030e+00     -1.2164e+01     -4.1637e+00     -7.3437e+00    -2.0655e+01
  1.2500e+01      -2.0773e+01     -1.4073e+01     -2.0055e+00     -1.2904e+01     -3.9035e+00     -7.5835e+00    -2.1921e+01
          13      -2.2277e+01     -1.5077e+01     -2.0108e+00     -1.3611e+01     -3.6112e+00     -7.7912e+00    -2.3228e+01
  1.3500e+01      -2.3781e+01     -1.6081e+01     -2.0194e+00     -1.4359e+01     -3.3595e+00     -8.0395e+00    -2.4517e+01
          14      -2.5270e+01     -1.7070e+01     -2.0192e+00     -1.5364e+01     -3.3637e+00     -8.5437e+00    -2.5585e+01
