title = "dataset stedvs"
variables = "x", "y", "z", "K_xx", "K_yy", "K_zz"
zone t = "K - initial [m/s]", i =   21, j =   21, k =    1,  f=point
  0.0000000E+00  0.0000000E+00  0.0000000E+00  0.1160000E-04  0.0000000E+00  0.1160000E-05
  0.5000000E-01  0.0000000E+00  0.0000000E+00  0.1160000E-04  0.0000000E+00  0.1160000E-05
  0.1000000E+00  0.0000000E+00  0.0000000E+00  0.1160000E-04  0.0000000E+00  0.1160000E-05
  0.1500000E+00  0.0000000E+00  0.0000000E+00  0.1160000E-04  0.0000000E+00  0.1160000E-05
  0.2000000E+00  0.0000000E+00  0.0000000E+00  0.1160000E-04  0.0000000E+00  0.1160000E-05
  0.2500000E+00  0.0000000E+00  0.0000000E+00  0.1160000E-04  0.0000000E+00  0.1160000E-05
  0.3000000E+00  0.0000000E+00  0.0000000E+00  0.1160000E-04  0.0000000E+00  0.1160000E-05
  0.3500000E+00  0.0000000E+00  0.0000000E+00  0.1160000E-04  0.0000000E+00  0.1160000E-05
  0.4000000E+00  0.0000000E+00  0.0000000E+00  0.1160000E-04  0.0000000E+00  0.1160000E-05
  0.4500000E+00  0.0000000E+00  0.0000000E+00  0.1160000E-04  0.0000000E+00  0.1160000E-05
  0.5000000E+00  0.0000000E+00  0.0000000E+00  0.1160000E-04  0.0000000E+00  0.1160000E-05
  0.5500000E+00  0.0000000E+00  0.0000000E+00  0.1160000E-04  0.0000000E+00  0.1160000E-05
  0.6000000E+00  0.0000000E+00  0.0000000E+00  0.1160000E-04  0.0000000E+00  0.1160000E-05
  0.6500000E+00  0.0000000E+00  0.0000000E+00  0.1160000E-04  0.0000000E+00  0.1160000E-05
  0.7000000E+00  0.0000000E+00  0.0000000E+00  0.1160000E-04  0.0000000E+00  0.1160000E-05
  0.7500000E+00  0.0000000E+00  0.0000000E+00  0.1160000E-04  0.0000000E+00  0.1160000E-05
  0.8000000E+00  0.0000000E+00  0.0000000E+00  0.1160000E-04  0.0000000E+00  0.1160000E-05
  0.8500000E+00  0.0000000E+00  0.0000000E+00  0.1160000E-04  0.0000000E+00  0.1160000E-05
  0.9000000E+00  0.0000000E+00  0.0000000E+00  0.1160000E-04  0.0000000E+00  0.1160000E-05
  0.9500000E+00  0.0000000E+00  0.0000000E+00  0.1160000E-04  0.0000000E+00  0.1160000E-05
  0.1000000E+01  0.0000000E+00  0.0000000E+00  0.1160000E-04  0.0000000E+00  0.1160000E-05
  0.0000000E+00  0.0000000E+00  0.1000000E+00  0.1160000E-04  0.0000000E+00  0.1160000E-05
  0.5000000E-01  0.0000000E+00  0.1000000E+00  0.1160000E-04  0.0000000E+00  0.1160000E-05
  0.1000000E+00  0.0000000E+00  0.1000000E+00  0.1160000E-04  0.0000000E+00  0.1160000E-05
  0.1500000E+00  0.0000000E+00  0.1000000E+00  0.1160000E-04  0.0000000E+00  0.1160000E-05
  0.2000000E+00  0.0000000E+00  0.1000000E+00  0.1160000E-04  0.0000000E+00  0.1160000E-05
  0.2500000E+00  0.0000000E+00  0.1000000E+00  0.1160000E-04  0.0000000E+00  0.1160000E-05
  0.3000000E+00  0.0000000E+00  0.1000000E+00  0.1160000E-04  0.0000000E+00  0.1160000E-05
  0.3500000E+00  0.0000000E+00  0.1000000E+00  0.1160000E-04  0.0000000E+00  0.1160000E-05
  0.4000000E+00  0.0000000E+00  0.1000000E+00  0.1160000E-04  0.0000000E+00  0.1160000E-05
  0.4500000E+00  0.0000000E+00  0.1000000E+00  0.1160000E-04  0.0000000E+00  0.1160000E-05
  0.5000000E+00  0.0000000E+00  0.1000000E+00  0.1160000E-04  0.0000000E+00  0.1160000E-05
  0.5500000E+00  0.0000000E+00  0.1000000E+00  0.1160000E-04  0.0000000E+00  0.1160000E-05
  0.6000000E+00  0.0000000E+00  0.1000000E+00  0.1160000E-04  0.0000000E+00  0.1160000E-05
  0.6500000E+00  0.0000000E+00  0.1000000E+00  0.1160000E-04  0.0000000E+00  0.1160000E-05
  0.7000000E+00  0.0000000E+00  0.1000000E+00  0.1160000E-04  0.0000000E+00  0.1160000E-05
  0.7500000E+00  0.0000000E+00  0.1000000E+00  0.1160000E-04  0.0000000E+00  0.1160000E-05
  0.8000000E+00  0.0000000E+00  0.1000000E+00  0.1160000E-04  0.0000000E+00  0.1160000E-05
  0.8500000E+00  0.0000000E+00  0.1000000E+00  0.1160000E-04  0.0000000E+00  0.1160000E-05
  0.9000000E+00  0.0000000E+00  0.1000000E+00  0.1160000E-04  0.0000000E+00  0.1160000E-05
  0.9500000E+00  0.0000000E+00  0.1000000E+00  0.1160000E-04  0.0000000E+00  0.1160000E-05
  0.1000000E+01  0.0000000E+00  0.1000000E+00  0.1160000E-04  0.0000000E+00  0.1160000E-05
  0.0000000E+00  0.0000000E+00  0.2000000E+00  0.1160000E-04  0.0000000E+00  0.1160000E-05
  0.5000000E-01  0.0000000E+00  0.2000000E+00  0.1160000E-04  0.0000000E+00  0.1160000E-05
  0.1000000E+00  0.0000000E+00  0.2000000E+00  0.1160000E-04  0.0000000E+00  0.1160000E-05
  0.1500000E+00  0.0000000E+00  0.2000000E+00  0.1160000E-04  0.0000000E+00  0.1160000E-05
  0.2000000E+00  0.0000000E+00  0.2000000E+00  0.1160000E-04  0.0000000E+00  0.1160000E-05
  0.2500000E+00  0.0000000E+00  0.2000000E+00  0.1160000E-04  0.0000000E+00  0.1160000E-05
  0.3000000E+00  0.0000000E+00  0.2000000E+00  0.1160000E-04  0.0000000E+00  0.1160000E-05
  0.3500000E+00  0.0000000E+00  0.2000000E+00  0.1160000E-04  0.0000000E+00  0.1160000E-05
  0.4000000E+00  0.0000000E+00  0.2000000E+00  0.1160000E-04  0.0000000E+00  0.1160000E-05
  0.4500000E+00  0.0000000E+00  0.2000000E+00  0.1160000E-04  0.0000000E+00  0.1160000E-05
  0.5000000E+00  0.0000000E+00  0.2000000E+00  0.1160000E-04  0.0000000E+00  0.1160000E-05
  0.5500000E+00  0.0000000E+00  0.2000000E+00  0.1160000E-04  0.0000000E+00  0.1160000E-05
  0.6000000E+00  0.0000000E+00  0.2000000E+00  0.1160000E-04  0.0000000E+00  0.1160000E-05
  0.6500000E+00  0.0000000E+00  0.2000000E+00  0.1160000E-04  0.0000000E+00  0.1160000E-05
  0.7000000E+00  0.0000000E+00  0.2000000E+00  0.1160000E-04  0.0000000E+00  0.1160000E-05
  0.7500000E+00  0.0000000E+00  0.2000000E+00  0.1160000E-04  0.0000000E+00  0.1160000E-05
  0.8000000E+00  0.0000000E+00  0.2000000E+00  0.1160000E-04  0.0000000E+00  0.1160000E-05
  0.8500000E+00  0.0000000E+00  0.2000000E+00  0.1160000E-04  0.0000000E+00  0.1160000E-05
  0.9000000E+00  0.0000000E+00  0.2000000E+00  0.1160000E-04  0.0000000E+00  0.1160000E-05
  0.9500000E+00  0.0000000E+00  0.2000000E+00  0.1160000E-04  0.0000000E+00  0.1160000E-05
  0.1000000E+01  0.0000000E+00  0.2000000E+00  0.1160000E-04  0.0000000E+00  0.1160000E-05
  0.0000000E+00  0.0000000E+00  0.3000000E+00  0.1160000E-04  0.0000000E+00  0.1160000E-05
  0.5000000E-01  0.0000000E+00  0.3000000E+00  0.1160000E-04  0.0000000E+00  0.1160000E-05
  0.1000000E+00  0.0000000E+00  0.3000000E+00  0.1160000E-04  0.0000000E+00  0.1160000E-05
  0.1500000E+00  0.0000000E+00  0.3000000E+00  0.1160000E-04  0.0000000E+00  0.1160000E-05
  0.2000000E+00  0.0000000E+00  0.3000000E+00  0.1160000E-04  0.0000000E+00  0.1160000E-05
  0.2500000E+00  0.0000000E+00  0.3000000E+00  0.1160000E-04  0.0000000E+00  0.1160000E-05
  0.3000000E+00  0.0000000E+00  0.3000000E+00  0.1160000E-04  0.0000000E+00  0.1160000E-05
  0.3500000E+00  0.0000000E+00  0.3000000E+00  0.1160000E-04  0.0000000E+00  0.1160000E-05
  0.4000000E+00  0.0000000E+00  0.3000000E+00  0.1160000E-04  0.0000000E+00  0.1160000E-05
  0.4500000E+00  0.0000000E+00  0.3000000E+00  0.1160000E-04  0.0000000E+00  0.1160000E-05
  0.5000000E+00  0.0000000E+00  0.3000000E+00  0.1160000E-04  0.0000000E+00  0.1160000E-05
  0.5500000E+00  0.0000000E+00  0.3000000E+00  0.1160000E-04  0.0000000E+00  0.1160000E-05
  0.6000000E+00  0.0000000E+00  0.3000000E+00  0.1160000E-04  0.0000000E+00  0.1160000E-05
  0.6500000E+00  0.0000000E+00  0.3000000E+00  0.1160000E-04  0.0000000E+00  0.1160000E-05
  0.7000000E+00  0.0000000E+00  0.3000000E+00  0.1160000E-04  0.0000000E+00  0.1160000E-05
  0.7500000E+00  0.0000000E+00  0.3000000E+00  0.1160000E-04  0.0000000E+00  0.1160000E-05
  0.8000000E+00  0.0000000E+00  0.3000000E+00  0.1160000E-04  0.0000000E+00  0.1160000E-05
  0.8500000E+00  0.0000000E+00  0.3000000E+00  0.1160000E-04  0.0000000E+00  0.1160000E-05
  0.9000000E+00  0.0000000E+00  0.3000000E+00  0.1160000E-04  0.0000000E+00  0.1160000E-05
  0.9500000E+00  0.0000000E+00  0.3000000E+00  0.1160000E-04  0.0000000E+00  0.1160000E-05
  0.1000000E+01  0.0000000E+00  0.3000000E+00  0.1160000E-04  0.0000000E+00  0.1160000E-05
  0.0000000E+00  0.0000000E+00  0.4000000E+00  0.1160000E-04  0.0000000E+00  0.1160000E-05
  0.5000000E-01  0.0000000E+00  0.4000000E+00  0.1160000E-04  0.0000000E+00  0.1160000E-05
  0.1000000E+00  0.0000000E+00  0.4000000E+00  0.1160000E-04  0.0000000E+00  0.1160000E-05
  0.1500000E+00  0.0000000E+00  0.4000000E+00  0.1160000E-04  0.0000000E+00  0.1160000E-05
  0.2000000E+00  0.0000000E+00  0.4000000E+00  0.1160000E-04  0.0000000E+00  0.1160000E-05
  0.2500000E+00  0.0000000E+00  0.4000000E+00  0.1160000E-04  0.0000000E+00  0.1160000E-05
  0.3000000E+00  0.0000000E+00  0.4000000E+00  0.1160000E-04  0.0000000E+00  0.1160000E-05
  0.3500000E+00  0.0000000E+00  0.4000000E+00  0.1160000E-04  0.0000000E+00  0.1160000E-05
  0.4000000E+00  0.0000000E+00  0.4000000E+00  0.1160000E-04  0.0000000E+00  0.1160000E-05
  0.4500000E+00  0.0000000E+00  0.4000000E+00  0.1160000E-04  0.0000000E+00  0.1160000E-05
  0.5000000E+00  0.0000000E+00  0.4000000E+00  0.1160000E-04  0.0000000E+00  0.1160000E-05
  0.5500000E+00  0.0000000E+00  0.4000000E+00  0.1160000E-04  0.0000000E+00  0.1160000E-05
  0.6000000E+00  0.0000000E+00  0.4000000E+00  0.1160000E-04  0.0000000E+00  0.1160000E-05
  0.6500000E+00  0.0000000E+00  0.4000000E+00  0.1160000E-04  0.0000000E+00  0.1160000E-05
  0.7000000E+00  0.0000000E+00  0.4000000E+00  0.1160000E-04  0.0000000E+00  0.1160000E-05
  0.7500000E+00  0.0000000E+00  0.4000000E+00  0.1160000E-04  0.0000000E+00  0.1160000E-05
  0.8000000E+00  0.0000000E+00  0.4000000E+00  0.1160000E-04  0.0000000E+00  0.1160000E-05
  0.8500000E+00  0.0000000E+00  0.4000000E+00  0.1160000E-04  0.0000000E+00  0.1160000E-05
  0.9000000E+00  0.0000000E+00  0.4000000E+00  0.1160000E-04  0.0000000E+00  0.1160000E-05
  0.9500000E+00  0.0000000E+00  0.4000000E+00  0.1160000E-04  0.0000000E+00  0.1160000E-05
  0.1000000E+01  0.0000000E+00  0.4000000E+00  0.1160000E-04  0.0000000E+00  0.1160000E-05
  0.0000000E+00  0.0000000E+00  0.5000000E+00  0.1160000E-04  0.0000000E+00  0.1160000E-05
  0.5000000E-01  0.0000000E+00  0.5000000E+00  0.1160000E-04  0.0000000E+00  0.1160000E-05
  0.1000000E+00  0.0000000E+00  0.5000000E+00  0.1160000E-04  0.0000000E+00  0.1160000E-05
  0.1500000E+00  0.0000000E+00  0.5000000E+00  0.1160000E-04  0.0000000E+00  0.1160000E-05
  0.2000000E+00  0.0000000E+00  0.5000000E+00  0.1160000E-04  0.0000000E+00  0.1160000E-05
  0.2500000E+00  0.0000000E+00  0.5000000E+00  0.1160000E-04  0.0000000E+00  0.1160000E-05
  0.3000000E+00  0.0000000E+00  0.5000000E+00  0.1160000E-04  0.0000000E+00  0.1160000E-05
  0.3500000E+00  0.0000000E+00  0.5000000E+00  0.1160000E-04  0.0000000E+00  0.1160000E-05
  0.4000000E+00  0.0000000E+00  0.5000000E+00  0.1160000E-04  0.0000000E+00  0.1160000E-05
  0.4500000E+00  0.0000000E+00  0.5000000E+00  0.1160000E-04  0.0000000E+00  0.1160000E-05
  0.5000000E+00  0.0000000E+00  0.5000000E+00  0.1160000E-04  0.0000000E+00  0.1160000E-05
  0.5500000E+00  0.0000000E+00  0.5000000E+00  0.1160000E-04  0.0000000E+00  0.1160000E-05
  0.6000000E+00  0.0000000E+00  0.5000000E+00  0.1160000E-04  0.0000000E+00  0.1160000E-05
  0.6500000E+00  0.0000000E+00  0.5000000E+00  0.1160000E-04  0.0000000E+00  0.1160000E-05
  0.7000000E+00  0.0000000E+00  0.5000000E+00  0.1160000E-04  0.0000000E+00  0.1160000E-05
  0.7500000E+00  0.0000000E+00  0.5000000E+00  0.1160000E-04  0.0000000E+00  0.1160000E-05
  0.8000000E+00  0.0000000E+00  0.5000000E+00  0.1160000E-04  0.0000000E+00  0.1160000E-05
  0.8500000E+00  0.0000000E+00  0.5000000E+00  0.1160000E-04  0.0000000E+00  0.1160000E-05
  0.9000000E+00  0.0000000E+00  0.5000000E+00  0.1160000E-04  0.0000000E+00  0.1160000E-05
  0.9500000E+00  0.0000000E+00  0.5000000E+00  0.1160000E-04  0.0000000E+00  0.1160000E-05
  0.1000000E+01  0.0000000E+00  0.5000000E+00  0.1160000E-04  0.0000000E+00  0.1160000E-05
  0.0000000E+00  0.0000000E+00  0.6000000E+00  0.1160000E-04  0.0000000E+00  0.1160000E-05
  0.5000000E-01  0.0000000E+00  0.6000000E+00  0.1160000E-04  0.0000000E+00  0.1160000E-05
  0.1000000E+00  0.0000000E+00  0.6000000E+00  0.1160000E-04  0.0000000E+00  0.1160000E-05
  0.1500000E+00  0.0000000E+00  0.6000000E+00  0.1160000E-04  0.0000000E+00  0.1160000E-05
  0.2000000E+00  0.0000000E+00  0.6000000E+00  0.1160000E-04  0.0000000E+00  0.1160000E-05
  0.2500000E+00  0.0000000E+00  0.6000000E+00  0.1160000E-04  0.0000000E+00  0.1160000E-05
  0.3000000E+00  0.0000000E+00  0.6000000E+00  0.1160000E-04  0.0000000E+00  0.1160000E-05
  0.3500000E+00  0.0000000E+00  0.6000000E+00  0.1160000E-04  0.0000000E+00  0.1160000E-05
  0.4000000E+00  0.0000000E+00  0.6000000E+00  0.1160000E-04  0.0000000E+00  0.1160000E-05
  0.4500000E+00  0.0000000E+00  0.6000000E+00  0.1160000E-04  0.0000000E+00  0.1160000E-05
  0.5000000E+00  0.0000000E+00  0.6000000E+00  0.1160000E-04  0.0000000E+00  0.1160000E-05
  0.5500000E+00  0.0000000E+00  0.6000000E+00  0.1160000E-04  0.0000000E+00  0.1160000E-05
  0.6000000E+00  0.0000000E+00  0.6000000E+00  0.1160000E-04  0.0000000E+00  0.1160000E-05
  0.6500000E+00  0.0000000E+00  0.6000000E+00  0.1160000E-04  0.0000000E+00  0.1160000E-05
  0.7000000E+00  0.0000000E+00  0.6000000E+00  0.1160000E-04  0.0000000E+00  0.1160000E-05
  0.7500000E+00  0.0000000E+00  0.6000000E+00  0.1160000E-04  0.0000000E+00  0.1160000E-05
  0.8000000E+00  0.0000000E+00  0.6000000E+00  0.1160000E-04  0.0000000E+00  0.1160000E-05
  0.8500000E+00  0.0000000E+00  0.6000000E+00  0.1160000E-04  0.0000000E+00  0.1160000E-05
  0.9000000E+00  0.0000000E+00  0.6000000E+00  0.1160000E-04  0.0000000E+00  0.1160000E-05
  0.9500000E+00  0.0000000E+00  0.6000000E+00  0.1160000E-04  0.0000000E+00  0.1160000E-05
  0.1000000E+01  0.0000000E+00  0.6000000E+00  0.1160000E-04  0.0000000E+00  0.1160000E-05
  0.0000000E+00  0.0000000E+00  0.7000000E+00  0.1160000E-12  0.0000000E+00  0.1160000E-12
  0.5000000E-01  0.0000000E+00  0.7000000E+00  0.1160000E-12  0.0000000E+00  0.1160000E-12
  0.1000000E+00  0.0000000E+00  0.7000000E+00  0.1160000E-12  0.0000000E+00  0.1160000E-12
  0.1500000E+00  0.0000000E+00  0.7000000E+00  0.1160000E-12  0.0000000E+00  0.1160000E-12
  0.2000000E+00  0.0000000E+00  0.7000000E+00  0.1160000E-12  0.0000000E+00  0.1160000E-12
  0.2500000E+00  0.0000000E+00  0.7000000E+00  0.1160000E-12  0.0000000E+00  0.1160000E-12
  0.3000000E+00  0.0000000E+00  0.7000000E+00  0.1160000E-12  0.0000000E+00  0.1160000E-12
  0.3500000E+00  0.0000000E+00  0.7000000E+00  0.1160000E-12  0.0000000E+00  0.1160000E-12
  0.4000000E+00  0.0000000E+00  0.7000000E+00  0.1160000E-12  0.0000000E+00  0.1160000E-12
  0.4500000E+00  0.0000000E+00  0.7000000E+00  0.1160000E-12  0.0000000E+00  0.1160000E-12
  0.5000000E+00  0.0000000E+00  0.7000000E+00  0.1160000E-12  0.0000000E+00  0.1160000E-12
  0.5500000E+00  0.0000000E+00  0.7000000E+00  0.1160000E-04  0.0000000E+00  0.1160000E-05
  0.6000000E+00  0.0000000E+00  0.7000000E+00  0.1160000E-04  0.0000000E+00  0.1160000E-05
  0.6500000E+00  0.0000000E+00  0.7000000E+00  0.1160000E-04  0.0000000E+00  0.1160000E-05
  0.7000000E+00  0.0000000E+00  0.7000000E+00  0.1160000E-04  0.0000000E+00  0.1160000E-05
  0.7500000E+00  0.0000000E+00  0.7000000E+00  0.1160000E-04  0.0000000E+00  0.1160000E-05
  0.8000000E+00  0.0000000E+00  0.7000000E+00  0.1160000E-04  0.0000000E+00  0.1160000E-05
  0.8500000E+00  0.0000000E+00  0.7000000E+00  0.1160000E-04  0.0000000E+00  0.1160000E-05
  0.9000000E+00  0.0000000E+00  0.7000000E+00  0.1160000E-04  0.0000000E+00  0.1160000E-05
  0.9500000E+00  0.0000000E+00  0.7000000E+00  0.1160000E-04  0.0000000E+00  0.1160000E-05
  0.1000000E+01  0.0000000E+00  0.7000000E+00  0.1160000E-04  0.0000000E+00  0.1160000E-05
  0.0000000E+00  0.0000000E+00  0.8000000E+00  0.1160000E-12  0.0000000E+00  0.1160000E-12
  0.5000000E-01  0.0000000E+00  0.8000000E+00  0.1160000E-12  0.0000000E+00  0.1160000E-12
  0.1000000E+00  0.0000000E+00  0.8000000E+00  0.1160000E-12  0.0000000E+00  0.1160000E-12
  0.1500000E+00  0.0000000E+00  0.8000000E+00  0.1160000E-12  0.0000000E+00  0.1160000E-12
  0.2000000E+00  0.0000000E+00  0.8000000E+00  0.1160000E-12  0.0000000E+00  0.1160000E-12
  0.2500000E+00  0.0000000E+00  0.8000000E+00  0.1160000E-12  0.0000000E+00  0.1160000E-12
  0.3000000E+00  0.0000000E+00  0.8000000E+00  0.1160000E-12  0.0000000E+00  0.1160000E-12
  0.3500000E+00  0.0000000E+00  0.8000000E+00  0.1160000E-12  0.0000000E+00  0.1160000E-12
  0.4000000E+00  0.0000000E+00  0.8000000E+00  0.1160000E-12  0.0000000E+00  0.1160000E-12
  0.4500000E+00  0.0000000E+00  0.8000000E+00  0.1160000E-12  0.0000000E+00  0.1160000E-12
  0.5000000E+00  0.0000000E+00  0.8000000E+00  0.1160000E-12  0.0000000E+00  0.1160000E-12
  0.5500000E+00  0.0000000E+00  0.8000000E+00  0.1160000E-04  0.0000000E+00  0.1160000E-05
  0.6000000E+00  0.0000000E+00  0.8000000E+00  0.1160000E-04  0.0000000E+00  0.1160000E-05
  0.6500000E+00  0.0000000E+00  0.8000000E+00  0.1160000E-04  0.0000000E+00  0.1160000E-05
  0.7000000E+00  0.0000000E+00  0.8000000E+00  0.1160000E-04  0.0000000E+00  0.1160000E-05
  0.7500000E+00  0.0000000E+00  0.8000000E+00  0.1160000E-04  0.0000000E+00  0.1160000E-05
  0.8000000E+00  0.0000000E+00  0.8000000E+00  0.1160000E-04  0.0000000E+00  0.1160000E-05
  0.8500000E+00  0.0000000E+00  0.8000000E+00  0.1160000E-04  0.0000000E+00  0.1160000E-05
  0.9000000E+00  0.0000000E+00  0.8000000E+00  0.1160000E-04  0.0000000E+00  0.1160000E-05
  0.9500000E+00  0.0000000E+00  0.8000000E+00  0.1160000E-04  0.0000000E+00  0.1160000E-05
  0.1000000E+01  0.0000000E+00  0.8000000E+00  0.1160000E-04  0.0000000E+00  0.1160000E-05
  0.0000000E+00  0.0000000E+00  0.9000000E+00  0.1160000E-12  0.0000000E+00  0.1160000E-12
  0.5000000E-01  0.0000000E+00  0.9000000E+00  0.1160000E-12  0.0000000E+00  0.1160000E-12
  0.1000000E+00  0.0000000E+00  0.9000000E+00  0.1160000E-12  0.0000000E+00  0.1160000E-12
  0.1500000E+00  0.0000000E+00  0.9000000E+00  0.1160000E-12  0.0000000E+00  0.1160000E-12
  0.2000000E+00  0.0000000E+00  0.9000000E+00  0.1160000E-12  0.0000000E+00  0.1160000E-12
  0.2500000E+00  0.0000000E+00  0.9000000E+00  0.1160000E-12  0.0000000E+00  0.1160000E-12
  0.3000000E+00  0.0000000E+00  0.9000000E+00  0.1160000E-12  0.0000000E+00  0.1160000E-12
  0.3500000E+00  0.0000000E+00  0.9000000E+00  0.1160000E-12  0.0000000E+00  0.1160000E-12
  0.4000000E+00  0.0000000E+00  0.9000000E+00  0.1160000E-12  0.0000000E+00  0.1160000E-12
  0.4500000E+00  0.0000000E+00  0.9000000E+00  0.1160000E-12  0.0000000E+00  0.1160000E-12
  0.5000000E+00  0.0000000E+00  0.9000000E+00  0.1160000E-12  0.0000000E+00  0.1160000E-12
  0.5500000E+00  0.0000000E+00  0.9000000E+00  0.1160000E-04  0.0000000E+00  0.1160000E-05
  0.6000000E+00  0.0000000E+00  0.9000000E+00  0.1160000E-04  0.0000000E+00  0.1160000E-05
  0.6500000E+00  0.0000000E+00  0.9000000E+00  0.1160000E-04  0.0000000E+00  0.1160000E-05
  0.7000000E+00  0.0000000E+00  0.9000000E+00  0.1160000E-04  0.0000000E+00  0.1160000E-05
  0.7500000E+00  0.0000000E+00  0.9000000E+00  0.1160000E-04  0.0000000E+00  0.1160000E-05
  0.8000000E+00  0.0000000E+00  0.9000000E+00  0.1160000E-04  0.0000000E+00  0.1160000E-05
  0.8500000E+00  0.0000000E+00  0.9000000E+00  0.1160000E-04  0.0000000E+00  0.1160000E-05
  0.9000000E+00  0.0000000E+00  0.9000000E+00  0.1160000E-04  0.0000000E+00  0.1160000E-05
  0.9500000E+00  0.0000000E+00  0.9000000E+00  0.1160000E-04  0.0000000E+00  0.1160000E-05
  0.1000000E+01  0.0000000E+00  0.9000000E+00  0.1160000E-04  0.0000000E+00  0.1160000E-05
  0.0000000E+00  0.0000000E+00  0.1000000E+01  0.1160000E-12  0.0000000E+00  0.1160000E-12
  0.5000000E-01  0.0000000E+00  0.1000000E+01  0.1160000E-12  0.0000000E+00  0.1160000E-12
  0.1000000E+00  0.0000000E+00  0.1000000E+01  0.1160000E-12  0.0000000E+00  0.1160000E-12
  0.1500000E+00  0.0000000E+00  0.1000000E+01  0.1160000E-12  0.0000000E+00  0.1160000E-12
  0.2000000E+00  0.0000000E+00  0.1000000E+01  0.1160000E-12  0.0000000E+00  0.1160000E-12
  0.2500000E+00  0.0000000E+00  0.1000000E+01  0.1160000E-12  0.0000000E+00  0.1160000E-12
  0.3000000E+00  0.0000000E+00  0.1000000E+01  0.1160000E-12  0.0000000E+00  0.1160000E-12
  0.3500000E+00  0.0000000E+00  0.1000000E+01  0.1160000E-12  0.0000000E+00  0.1160000E-12
  0.4000000E+00  0.0000000E+00  0.1000000E+01  0.1160000E-12  0.0000000E+00  0.1160000E-12
  0.4500000E+00  0.0000000E+00  0.1000000E+01  0.1160000E-12  0.0000000E+00  0.1160000E-12
  0.5000000E+00  0.0000000E+00  0.1000000E+01  0.1160000E-12  0.0000000E+00  0.1160000E-12
  0.5500000E+00  0.0000000E+00  0.1000000E+01  0.1160000E-04  0.0000000E+00  0.1160000E-05
  0.6000000E+00  0.0000000E+00  0.1000000E+01  0.1160000E-04  0.0000000E+00  0.1160000E-05
  0.6500000E+00  0.0000000E+00  0.1000000E+01  0.1160000E-04  0.0000000E+00  0.1160000E-05
  0.7000000E+00  0.0000000E+00  0.1000000E+01  0.1160000E-04  0.0000000E+00  0.1160000E-05
  0.7500000E+00  0.0000000E+00  0.1000000E+01  0.1160000E-04  0.0000000E+00  0.1160000E-05
  0.8000000E+00  0.0000000E+00  0.1000000E+01  0.1160000E-04  0.0000000E+00  0.1160000E-05
  0.8500000E+00  0.0000000E+00  0.1000000E+01  0.1160000E-04  0.0000000E+00  0.1160000E-05
  0.9000000E+00  0.0000000E+00  0.1000000E+01  0.1160000E-04  0.0000000E+00  0.1160000E-05
  0.9500000E+00  0.0000000E+00  0.1000000E+01  0.1160000E-04  0.0000000E+00  0.1160000E-05
  0.1000000E+01  0.0000000E+00  0.1000000E+01  0.1160000E-04  0.0000000E+00  0.1160000E-05
  0.0000000E+00  0.0000000E+00  0.1100000E+01  0.1160000E-12  0.0000000E+00  0.1160000E-12
  0.5000000E-01  0.0000000E+00  0.1100000E+01  0.1160000E-12  0.0000000E+00  0.1160000E-12
  0.1000000E+00  0.0000000E+00  0.1100000E+01  0.1160000E-12  0.0000000E+00  0.1160000E-12
  0.1500000E+00  0.0000000E+00  0.1100000E+01  0.1160000E-12  0.0000000E+00  0.1160000E-12
  0.2000000E+00  0.0000000E+00  0.1100000E+01  0.1160000E-12  0.0000000E+00  0.1160000E-12
  0.2500000E+00  0.0000000E+00  0.1100000E+01  0.1160000E-12  0.0000000E+00  0.1160000E-12
  0.3000000E+00  0.0000000E+00  0.1100000E+01  0.1160000E-12  0.0000000E+00  0.1160000E-12
  0.3500000E+00  0.0000000E+00  0.1100000E+01  0.1160000E-12  0.0000000E+00  0.1160000E-12
  0.4000000E+00  0.0000000E+00  0.1100000E+01  0.1160000E-12  0.0000000E+00  0.1160000E-12
  0.4500000E+00  0.0000000E+00  0.1100000E+01  0.1160000E-12  0.0000000E+00  0.1160000E-12
  0.5000000E+00  0.0000000E+00  0.1100000E+01  0.1160000E-12  0.0000000E+00  0.1160000E-12
  0.5500000E+00  0.0000000E+00  0.1100000E+01  0.1160000E-04  0.0000000E+00  0.1160000E-05
  0.6000000E+00  0.0000000E+00  0.1100000E+01  0.1160000E-04  0.0000000E+00  0.1160000E-05
  0.6500000E+00  0.0000000E+00  0.1100000E+01  0.1160000E-04  0.0000000E+00  0.1160000E-05
  0.7000000E+00  0.0000000E+00  0.1100000E+01  0.1160000E-04  0.0000000E+00  0.1160000E-05
  0.7500000E+00  0.0000000E+00  0.1100000E+01  0.1160000E-04  0.0000000E+00  0.1160000E-05
  0.8000000E+00  0.0000000E+00  0.1100000E+01  0.1160000E-04  0.0000000E+00  0.1160000E-05
  0.8500000E+00  0.0000000E+00  0.1100000E+01  0.1160000E-04  0.0000000E+00  0.1160000E-05
  0.9000000E+00  0.0000000E+00  0.1100000E+01  0.1160000E-04  0.0000000E+00  0.1160000E-05
  0.9500000E+00  0.0000000E+00  0.1100000E+01  0.1160000E-04  0.0000000E+00  0.1160000E-05
  0.1000000E+01  0.0000000E+00  0.1100000E+01  0.1160000E-04  0.0000000E+00  0.1160000E-05
  0.0000000E+00  0.0000000E+00  0.1200000E+01  0.1160000E-12  0.0000000E+00  0.1160000E-12
  0.5000000E-01  0.0000000E+00  0.1200000E+01  0.1160000E-12  0.0000000E+00  0.1160000E-12
  0.1000000E+00  0.0000000E+00  0.1200000E+01  0.1160000E-12  0.0000000E+00  0.1160000E-12
  0.1500000E+00  0.0000000E+00  0.1200000E+01  0.1160000E-12  0.0000000E+00  0.1160000E-12
  0.2000000E+00  0.0000000E+00  0.1200000E+01  0.1160000E-12  0.0000000E+00  0.1160000E-12
  0.2500000E+00  0.0000000E+00  0.1200000E+01  0.1160000E-12  0.0000000E+00  0.1160000E-12
  0.3000000E+00  0.0000000E+00  0.1200000E+01  0.1160000E-12  0.0000000E+00  0.1160000E-12
  0.3500000E+00  0.0000000E+00  0.1200000E+01  0.1160000E-12  0.0000000E+00  0.1160000E-12
  0.4000000E+00  0.0000000E+00  0.1200000E+01  0.1160000E-12  0.0000000E+00  0.1160000E-12
  0.4500000E+00  0.0000000E+00  0.1200000E+01  0.1160000E-12  0.0000000E+00  0.1160000E-12
  0.5000000E+00  0.0000000E+00  0.1200000E+01  0.1160000E-12  0.0000000E+00  0.1160000E-12
  0.5500000E+00  0.0000000E+00  0.1200000E+01  0.1160000E-04  0.0000000E+00  0.1160000E-05
  0.6000000E+00  0.0000000E+00  0.1200000E+01  0.1160000E-04  0.0000000E+00  0.1160000E-05
  0.6500000E+00  0.0000000E+00  0.1200000E+01  0.1160000E-04  0.0000000E+00  0.1160000E-05
  0.7000000E+00  0.0000000E+00  0.1200000E+01  0.1160000E-04  0.0000000E+00  0.1160000E-05
  0.7500000E+00  0.0000000E+00  0.1200000E+01  0.1160000E-04  0.0000000E+00  0.1160000E-05
  0.8000000E+00  0.0000000E+00  0.1200000E+01  0.1160000E-04  0.0000000E+00  0.1160000E-05
  0.8500000E+00  0.0000000E+00  0.1200000E+01  0.1160000E-04  0.0000000E+00  0.1160000E-05
  0.9000000E+00  0.0000000E+00  0.1200000E+01  0.1160000E-04  0.0000000E+00  0.1160000E-05
  0.9500000E+00  0.0000000E+00  0.1200000E+01  0.1160000E-04  0.0000000E+00  0.1160000E-05
  0.1000000E+01  0.0000000E+00  0.1200000E+01  0.1160000E-04  0.0000000E+00  0.1160000E-05
  0.0000000E+00  0.0000000E+00  0.1300000E+01  0.1160000E-12  0.0000000E+00  0.1160000E-12
  0.5000000E-01  0.0000000E+00  0.1300000E+01  0.1160000E-12  0.0000000E+00  0.1160000E-12
  0.1000000E+00  0.0000000E+00  0.1300000E+01  0.1160000E-12  0.0000000E+00  0.1160000E-12
  0.1500000E+00  0.0000000E+00  0.1300000E+01  0.1160000E-12  0.0000000E+00  0.1160000E-12
  0.2000000E+00  0.0000000E+00  0.1300000E+01  0.1160000E-12  0.0000000E+00  0.1160000E-12
  0.2500000E+00  0.0000000E+00  0.1300000E+01  0.1160000E-12  0.0000000E+00  0.1160000E-12
  0.3000000E+00  0.0000000E+00  0.1300000E+01  0.1160000E-12  0.0000000E+00  0.1160000E-12
  0.3500000E+00  0.0000000E+00  0.1300000E+01  0.1160000E-12  0.0000000E+00  0.1160000E-12
  0.4000000E+00  0.0000000E+00  0.1300000E+01  0.1160000E-12  0.0000000E+00  0.1160000E-12
  0.4500000E+00  0.0000000E+00  0.1300000E+01  0.1160000E-12  0.0000000E+00  0.1160000E-12
  0.5000000E+00  0.0000000E+00  0.1300000E+01  0.1160000E-12  0.0000000E+00  0.1160000E-12
  0.5500000E+00  0.0000000E+00  0.1300000E+01  0.1160000E-04  0.0000000E+00  0.1160000E-05
  0.6000000E+00  0.0000000E+00  0.1300000E+01  0.1160000E-04  0.0000000E+00  0.1160000E-05
  0.6500000E+00  0.0000000E+00  0.1300000E+01  0.1160000E-04  0.0000000E+00  0.1160000E-05
  0.7000000E+00  0.0000000E+00  0.1300000E+01  0.1160000E-04  0.0000000E+00  0.1160000E-05
  0.7500000E+00  0.0000000E+00  0.1300000E+01  0.1160000E-04  0.0000000E+00  0.1160000E-05
  0.8000000E+00  0.0000000E+00  0.1300000E+01  0.1160000E-04  0.0000000E+00  0.1160000E-05
  0.8500000E+00  0.0000000E+00  0.1300000E+01  0.1160000E-04  0.0000000E+00  0.1160000E-05
  0.9000000E+00  0.0000000E+00  0.1300000E+01  0.1160000E-04  0.0000000E+00  0.1160000E-05
  0.9500000E+00  0.0000000E+00  0.1300000E+01  0.1160000E-04  0.0000000E+00  0.1160000E-05
  0.1000000E+01  0.0000000E+00  0.1300000E+01  0.1160000E-04  0.0000000E+00  0.1160000E-05
  0.0000000E+00  0.0000000E+00  0.1400000E+01  0.1160000E-12  0.0000000E+00  0.1160000E-12
  0.5000000E-01  0.0000000E+00  0.1400000E+01  0.1160000E-12  0.0000000E+00  0.1160000E-12
  0.1000000E+00  0.0000000E+00  0.1400000E+01  0.1160000E-12  0.0000000E+00  0.1160000E-12
  0.1500000E+00  0.0000000E+00  0.1400000E+01  0.1160000E-12  0.0000000E+00  0.1160000E-12
  0.2000000E+00  0.0000000E+00  0.1400000E+01  0.1160000E-12  0.0000000E+00  0.1160000E-12
  0.2500000E+00  0.0000000E+00  0.1400000E+01  0.1160000E-12  0.0000000E+00  0.1160000E-12
  0.3000000E+00  0.0000000E+00  0.1400000E+01  0.1160000E-12  0.0000000E+00  0.1160000E-12
  0.3500000E+00  0.0000000E+00  0.1400000E+01  0.1160000E-12  0.0000000E+00  0.1160000E-12
  0.4000000E+00  0.0000000E+00  0.1400000E+01  0.1160000E-12  0.0000000E+00  0.1160000E-12
  0.4500000E+00  0.0000000E+00  0.1400000E+01  0.1160000E-12  0.0000000E+00  0.1160000E-12
  0.5000000E+00  0.0000000E+00  0.1400000E+01  0.1160000E-12  0.0000000E+00  0.1160000E-12
  0.5500000E+00  0.0000000E+00  0.1400000E+01  0.1160000E-04  0.0000000E+00  0.1160000E-05
  0.6000000E+00  0.0000000E+00  0.1400000E+01  0.1160000E-04  0.0000000E+00  0.1160000E-05
  0.6500000E+00  0.0000000E+00  0.1400000E+01  0.1160000E-04  0.0000000E+00  0.1160000E-05
  0.7000000E+00  0.0000000E+00  0.1400000E+01  0.1160000E-04  0.0000000E+00  0.1160000E-05
  0.7500000E+00  0.0000000E+00  0.1400000E+01  0.1160000E-04  0.0000000E+00  0.1160000E-05
  0.8000000E+00  0.0000000E+00  0.1400000E+01  0.1160000E-04  0.0000000E+00  0.1160000E-05
  0.8500000E+00  0.0000000E+00  0.1400000E+01  0.1160000E-04  0.0000000E+00  0.1160000E-05
  0.9000000E+00  0.0000000E+00  0.1400000E+01  0.1160000E-04  0.0000000E+00  0.1160000E-05
  0.9500000E+00  0.0000000E+00  0.1400000E+01  0.1160000E-04  0.0000000E+00  0.1160000E-05
  0.1000000E+01  0.0000000E+00  0.1400000E+01  0.1160000E-04  0.0000000E+00  0.1160000E-05
  0.0000000E+00  0.0000000E+00  0.1500000E+01  0.1160000E-04  0.0000000E+00  0.1160000E-05
  0.5000000E-01  0.0000000E+00  0.1500000E+01  0.1160000E-04  0.0000000E+00  0.1160000E-05
  0.1000000E+00  0.0000000E+00  0.1500000E+01  0.1160000E-04  0.0000000E+00  0.1160000E-05
  0.1500000E+00  0.0000000E+00  0.1500000E+01  0.1160000E-04  0.0000000E+00  0.1160000E-05
  0.2000000E+00  0.0000000E+00  0.1500000E+01  0.1160000E-04  0.0000000E+00  0.1160000E-05
  0.2500000E+00  0.0000000E+00  0.1500000E+01  0.1160000E-04  0.0000000E+00  0.1160000E-05
  0.3000000E+00  0.0000000E+00  0.1500000E+01  0.1160000E-04  0.0000000E+00  0.1160000E-05
  0.3500000E+00  0.0000000E+00  0.1500000E+01  0.1160000E-04  0.0000000E+00  0.1160000E-05
  0.4000000E+00  0.0000000E+00  0.1500000E+01  0.1160000E-04  0.0000000E+00  0.1160000E-05