title = "dataset stedvs"
variables = "x", "y", "z", "h_w", "p_w", "s_w", "theta_a", "s_a", "theta_g"
zone t = "Flow variables, steady state" i =   21, j =   21, k =    1,  f=point
  0.0000000E+00  0.0000000E+00  0.0000000E+00  0.4565453E-01  0.4565453E-01  0.1000000E+01  0.1000000E+01  0.0000000E+00  0.0000000E+00
  0.5000000E-01  0.0000000E+00  0.0000000E+00  0.4530134E-01  0.4530134E-01  0.1000000E+01  0.1000000E+01  0.0000000E+00  0.0000000E+00
  0.1000000E+00  0.0000000E+00  0.0000000E+00  0.4423150E-01  0.4423150E-01  0.1000000E+01  0.1000000E+01  0.0000000E+00  0.0000000E+00
  0.1500000E+00  0.0000000E+00  0.0000000E+00  0.4241359E-01  0.4241359E-01  0.1000000E+01  0.1000000E+01  0.0000000E+00  0.0000000E+00
  0.2000000E+00  0.0000000E+00  0.0000000E+00  0.3979316E-01  0.3979316E-01  0.1000000E+01  0.1000000E+01  0.0000000E+00  0.0000000E+00
  0.2500000E+00  0.0000000E+00  0.0000000E+00  0.3628930E-01  0.3628930E-01  0.1000000E+01  0.1000000E+01  0.0000000E+00  0.0000000E+00
  0.3000000E+00  0.0000000E+00  0.0000000E+00  0.3178964E-01  0.3178964E-01  0.1000000E+01  0.1000000E+01  0.0000000E+00  0.0000000E+00
  0.3500000E+00  0.0000000E+00  0.0000000E+00  0.2614310E-01  0.2614310E-01  0.1000000E+01  0.1000000E+01  0.0000000E+00  0.0000000E+00
  0.4000000E+00  0.0000000E+00  0.0000000E+00  0.1915011E-01  0.1915011E-01  0.1000000E+01  0.1000000E+01  0.0000000E+00  0.0000000E+00
  0.4500000E+00  0.0000000E+00  0.0000000E+00  0.1054935E-01  0.1054935E-01  0.1000000E+01  0.1000000E+01  0.0000000E+00  0.0000000E+00
  0.5000000E+00  0.0000000E+00  0.0000000E+00  0.0000000E+00  0.0000000E+00  0.1000000E+01  0.1000000E+01  0.0000000E+00  0.0000000E+00
  0.5500000E+00  0.0000000E+00  0.0000000E+00  0.0000000E+00  0.0000000E+00  0.1000000E+01  0.1000000E+01  0.0000000E+00  0.0000000E+00
  0.6000000E+00  0.0000000E+00  0.0000000E+00  0.0000000E+00  0.0000000E+00  0.1000000E+01  0.1000000E+01  0.0000000E+00  0.0000000E+00
  0.6500000E+00  0.0000000E+00  0.0000000E+00  0.0000000E+00  0.0000000E+00  0.1000000E+01  0.1000000E+01  0.0000000E+00  0.0000000E+00
  0.7000000E+00  0.0000000E+00  0.0000000E+00  0.0000000E+00  0.0000000E+00  0.1000000E+01  0.1000000E+01  0.0000000E+00  0.0000000E+00
  0.7500000E+00  0.0000000E+00  0.0000000E+00  0.0000000E+00  0.0000000E+00  0.1000000E+01  0.1000000E+01  0.0000000E+00  0.0000000E+00
  0.8000000E+00  0.0000000E+00  0.0000000E+00  0.0000000E+00  0.0000000E+00  0.1000000E+01  0.1000000E+01  0.0000000E+00  0.0000000E+00
  0.8500000E+00  0.0000000E+00  0.0000000E+00  0.0000000E+00  0.0000000E+00  0.1000000E+01  0.1000000E+01  0.0000000E+00  0.0000000E+00
  0.9000000E+00  0.0000000E+00  0.0000000E+00  0.0000000E+00  0.0000000E+00  0.1000000E+01  0.1000000E+01  0.0000000E+00  0.0000000E+00
  0.9500000E+00  0.0000000E+00  0.0000000E+00  0.0000000E+00  0.0000000E+00  0.1000000E+01  0.1000000E+01  0.0000000E+00  0.0000000E+00
  0.1000000E+01  0.0000000E+00  0.0000000E+00  0.0000000E+00  0.0000000E+00  0.1000000E+01  0.1000000E+01  0.0000000E+00  0.0000000E+00
  0.0000000E+00  0.0000000E+00  0.1000000E+00  0.5979929E-01 -0.4020071E-01  0.9999454E+00  0.9999454E+00  0.5457702E-04  0.5457702E-04
  0.5000000E-01  0.0000000E+00  0.1000000E+00  0.5965184E-01 -0.4034816E-01  0.9999445E+00  0.9999445E+00  0.5552415E-04  0.5552415E-04
  0.1000000E+00  0.0000000E+00  0.1000000E+00  0.5921183E-01 -0.4078817E-01  0.9999416E+00  0.9999416E+00  0.5842784E-04  0.5842784E-04
  0.1500000E+00  0.0000000E+00  0.1000000E+00  0.5848649E-01 -0.4151351E-01  0.9999365E+00  0.9999365E+00  0.6347404E-04  0.6347404E-04
  0.2000000E+00  0.0000000E+00  0.1000000E+00  0.5748910E-01 -0.4251090E-01  0.9999290E+00  0.9999290E+00  0.7096635E-04  0.7096635E-04
  0.2500000E+00  0.0000000E+00  0.1000000E+00  0.5624081E-01 -0.4375919E-01  0.9999187E+00  0.9999187E+00  0.8130554E-04  0.8130554E-04
  0.3000000E+00  0.0000000E+00  0.1000000E+00  0.5477355E-01 -0.4522645E-01  0.9999051E+00  0.9999051E+00  0.9493597E-04  0.9493597E-04
  0.3500000E+00  0.0000000E+00  0.1000000E+00  0.5313427E-01 -0.4686573E-01  0.9998878E+00  0.9998878E+00  0.1122267E-03  0.1122267E-03
  0.4000000E+00  0.0000000E+00  0.1000000E+00  0.5139056E-01 -0.4860944E-01  0.9998668E+00  0.9998668E+00  0.1332446E-03  0.1332446E-03
  0.4500000E+00  0.0000000E+00  0.1000000E+00  0.4963872E-01 -0.5036128E-01  0.9998426E+00  0.9998426E+00  0.1573629E-03  0.1573629E-03
  0.5000000E+00  0.0000000E+00  0.1000000E+00  0.4801467E-01 -0.5198533E-01  0.9998173E+00  0.9998173E+00  0.1826720E-03  0.1826720E-03
  0.5500000E+00  0.0000000E+00  0.1000000E+00  0.4670877E-01 -0.5329123E-01  0.9997947E+00  0.9997947E+00  0.2052581E-03  0.2052581E-03
  0.6000000E+00  0.0000000E+00  0.1000000E+00  0.4566246E-01 -0.5433754E-01  0.9997751E+00  0.9997751E+00  0.2248931E-03  0.2248931E-03
  0.6500000E+00  0.0000000E+00  0.1000000E+00  0.4482885E-01 -0.5517115E-01  0.9997584E+00  0.9997584E+00  0.2415696E-03  0.2415696E-03
  0.7000000E+00  0.0000000E+00  0.1000000E+00  0.4417051E-01 -0.5582949E-01  0.9997446E+00  0.9997446E+00  0.2554151E-03  0.2554151E-03
  0.7500000E+00  0.0000000E+00  0.1000000E+00  0.4365767E-01 -0.5634233E-01  0.9997334E+00  0.9997334E+00  0.2666268E-03  0.2666268E-03
  0.8000000E+00  0.0000000E+00  0.1000000E+00  0.4326699E-01 -0.5673301E-01  0.9997246E+00  0.9997246E+00  0.2754249E-03  0.2754249E-03
  0.8500000E+00  0.0000000E+00  0.1000000E+00  0.4298052E-01 -0.5701948E-01  0.9997180E+00  0.9997180E+00  0.2820203E-03  0.2820203E-03
  0.9000000E+00  0.0000000E+00  0.1000000E+00  0.4278496E-01 -0.5721504E-01  0.9997134E+00  0.9997134E+00  0.2865933E-03  0.2865933E-03
  0.9500000E+00  0.0000000E+00  0.1000000E+00  0.4267119E-01 -0.5732881E-01  0.9997107E+00  0.9997107E+00  0.2892806E-03  0.2892806E-03
  0.1000000E+01  0.0000000E+00  0.1000000E+00  0.4263385E-01 -0.5736615E-01  0.9997098E+00  0.9997098E+00  0.2901668E-03  0.2901668E-03
  0.0000000E+00  0.0000000E+00  0.2000000E+00  0.8736540E-01 -0.1126346E+00  0.9931489E+00  0.9931489E+00  0.6851118E-02  0.6851118E-02
  0.5000000E-01  0.0000000E+00  0.2000000E+00  0.8733923E-01 -0.1126608E+00  0.9931415E+00  0.9931415E+00  0.6858531E-02  0.6858531E-02
  0.1000000E+00  0.0000000E+00  0.2000000E+00  0.8726167E-01 -0.1127383E+00  0.9931195E+00  0.9931195E+00  0.6880532E-02  0.6880532E-02
  0.1500000E+00  0.0000000E+00  0.2000000E+00  0.8713566E-01 -0.1128643E+00  0.9930836E+00  0.9930836E+00  0.6916399E-02  0.6916399E-02
  0.2000000E+00  0.0000000E+00  0.2000000E+00  0.8696609E-01 -0.1130339E+00  0.9930351E+00  0.9930351E+00  0.6964892E-02  0.6964892E-02
  0.2500000E+00  0.0000000E+00  0.2000000E+00  0.8675990E-01 -0.1132401E+00  0.9929758E+00  0.9929758E+00  0.7024208E-02  0.7024208E-02
  0.3000000E+00  0.0000000E+00  0.2000000E+00  0.8652609E-01 -0.1134739E+00  0.9929081E+00  0.9929081E+00  0.7091947E-02  0.7091947E-02
  0.3500000E+00  0.0000000E+00  0.2000000E+00  0.8627555E-01 -0.1137244E+00  0.9928349E+00  0.9928349E+00  0.7165090E-02  0.7165090E-02
  0.4000000E+00  0.0000000E+00  0.2000000E+00  0.8602079E-01 -0.1139792E+00  0.9927599E+00  0.9927599E+00  0.7240065E-02  0.7240065E-02
  0.4500000E+00  0.0000000E+00  0.2000000E+00  0.8577518E-01 -0.1142248E+00  0.9926871E+00  0.9926871E+00  0.7312923E-02  0.7312923E-02
  0.5000000E+00  0.0000000E+00  0.2000000E+00  0.8555160E-01 -0.1144484E+00  0.9926203E+00  0.9926203E+00  0.7379735E-02  0.7379735E-02
  0.5500000E+00  0.0000000E+00  0.2000000E+00  0.8536019E-01 -0.1146398E+00  0.9925627E+00  0.9925627E+00  0.7437310E-02  0.7437310E-02
  0.6000000E+00  0.0000000E+00  0.2000000E+00  0.8520453E-01 -0.1147955E+00  0.9925156E+00  0.9925156E+00  0.7484388E-02  0.7484388E-02
  0.6500000E+00  0.0000000E+00  0.2000000E+00  0.8508381E-01 -0.1149162E+00  0.9924789E+00  0.9924789E+00  0.7521057E-02  0.7521057E-02
  0.7000000E+00  0.0000000E+00  0.2000000E+00  0.8499452E-01 -0.1150055E+00  0.9924517E+00  0.9924517E+00  0.7548270E-02  0.7548270E-02
  0.7500000E+00  0.0000000E+00  0.2000000E+00  0.8493166E-01 -0.1150683E+00  0.9924325E+00  0.9924325E+00  0.7567472E-02  0.7567472E-02
  0.8000000E+00  0.0000000E+00  0.2000000E+00  0.8488974E-01 -0.1151103E+00  0.9924197E+00  0.9924197E+00  0.7580298E-02  0.7580298E-02
  0.8500000E+00  0.0000000E+00  0.2000000E+00  0.8486347E-01 -0.1151365E+00  0.9924117E+00  0.9924117E+00  0.7588345E-02  0.7588345E-02
  0.9000000E+00  0.0000000E+00  0.2000000E+00  0.8484826E-01 -0.1151517E+00  0.9924070E+00  0.9924070E+00  0.7593006E-02  0.7593006E-02
  0.9500000E+00  0.0000000E+00  0.2000000E+00  0.8484060E-01 -0.1151594E+00  0.9924046E+00  0.9924046E+00  0.7595355E-02  0.7595355E-02
  0.1000000E+01  0.0000000E+00  0.2000000E+00  0.8483830E-01 -0.1151617E+00  0.9924039E+00  0.9924039E+00  0.7596061E-02  0.7596061E-02
  0.0000000E+00  0.0000000E+00  0.3000000E+00  0.1258340E+00 -0.1741660E+00  0.9501240E+00  0.9501240E+00  0.4987598E-01  0.4987598E-01
  0.5000000E-01  0.0000000E+00  0.3000000E+00  0.1258961E+00 -0.1741039E+00  0.9502016E+00  0.9502016E+00  0.4979836E-01  0.4979836E-01
  0.1000000E+00  0.0000000E+00  0.3000000E+00  0.1260807E+00 -0.1739193E+00  0.9504319E+00  0.9504319E+00  0.4956806E-01  0.4956806E-01
  0.1500000E+00  0.0000000E+00  0.3000000E+00  0.1263830E+00 -0.1736170E+00  0.9508076E+00  0.9508076E+00  0.4919244E-01  0.4919244E-01
  0.2000000E+00  0.0000000E+00  0.3000000E+00  0.1267953E+00 -0.1732047E+00  0.9513167E+00  0.9513167E+00  0.4868326E-01  0.4868326E-01
  0.2500000E+00  0.0000000E+00  0.3000000E+00  0.1273073E+00 -0.1726927E+00  0.9519438E+00  0.9519438E+00  0.4805615E-01  0.4805615E-01
  0.3000000E+00  0.0000000E+00  0.3000000E+00  0.1279061E+00 -0.1720939E+00  0.9526700E+00  0.9526700E+00  0.4732999E-01  0.4732999E-01
  0.3500000E+00  0.0000000E+00  0.3000000E+00  0.1285766E+00 -0.1714234E+00  0.9534739E+00  0.9534739E+00  0.4652609E-01  0.4652609E-01
  0.4000000E+00  0.0000000E+00  0.3000000E+00  0.1293017E+00 -0.1706983E+00  0.9543325E+00  0.9543325E+00  0.4566749E-01  0.4566749E-01
  0.4500000E+00  0.0000000E+00  0.3000000E+00  0.1300630E+00 -0.1699370E+00  0.9552219E+00  0.9552219E+00  0.4477806E-01  0.4477806E-01
  0.5000000E+00  0.0000000E+00  0.3000000E+00  0.1308411E+00 -0.1691589E+00  0.9561183E+00  0.9561183E+00  0.4388174E-01  0.4388174E-01
  0.5500000E+00  0.0000000E+00  0.3000000E+00  0.1316161E+00 -0.1683839E+00  0.9569983E+00  0.9569983E+00  0.4300172E-01  0.4300172E-01
  0.6000000E+00  0.0000000E+00  0.3000000E+00  0.1323682E+00 -0.1676318E+00  0.9578403E+00  0.9578403E+00  0.4215969E-01  0.4215969E-01
  0.6500000E+00  0.0000000E+00  0.3000000E+00  0.1330787E+00 -0.1669213E+00  0.9586249E+00  0.9586249E+00  0.4137511E-01  0.4137511E-01
  0.7000000E+00  0.0000000E+00  0.3000000E+00  0.1337303E+00 -0.1662697E+00  0.9593352E+00  0.9593352E+00  0.4066478E-01  0.4066478E-01
  0.7500000E+00  0.0000000E+00  0.3000000E+00  0.1343076E+00 -0.1656924E+00  0.9599574E+00  0.9599574E+00  0.4004264E-01  0.4004264E-01
  0.8000000E+00  0.0000000E+00  0.3000000E+00  0.1347978E+00 -0.1652022E+00  0.9604802E+00  0.9604802E+00  0.3951985E-01  0.3951985E-01
  0.8500000E+00  0.0000000E+00  0.3000000E+00  0.1351901E+00 -0.1648099E+00  0.9608950E+00  0.9608950E+00  0.3910499E-01  0.3910499E-01
  0.9000000E+00  0.0000000E+00  0.3000000E+00  0.1354762E+00 -0.1645238E+00  0.9611956E+00  0.9611956E+00  0.3880438E-01  0.3880438E-01
  0.9500000E+00  0.0000000E+00  0.3000000E+00  0.1356502E+00 -0.1643498E+00  0.9613777E+00  0.9613777E+00  0.3862233E-01  0.3862233E-01
  0.1000000E+01  0.0000000E+00  0.3000000E+00  0.1357087E+00 -0.1642913E+00  0.9614386E+00  0.9614386E+00  0.3856135E-01  0.3856135E-01
  0.0000000E+00  0.0000000E+00  0.4000000E+00  0.1786995E+00 -0.2213005E+00  0.8658220E+00  0.8658220E+00  0.1341780E+00  0.1341780E+00
  0.5000000E-01  0.0000000E+00  0.4000000E+00  0.1788896E+00 -0.2211104E+00  0.8662618E+00  0.8662618E+00  0.1337382E+00  0.1337382E+00
  0.1000000E+00  0.0000000E+00  0.4000000E+00  0.1794523E+00 -0.2205477E+00  0.8675594E+00  0.8675594E+00  0.1324406E+00  0.1324406E+00
  0.1500000E+00  0.0000000E+00  0.4000000E+00  0.1803681E+00 -0.2196319E+00  0.8696571E+00  0.8696571E+00  0.1303429E+00  0.1303429E+00
  0.2000000E+00  0.0000000E+00  0.4000000E+00  0.1816068E+00 -0.2183932E+00  0.8724668E+00  0.8724668E+00  0.1275332E+00  0.1275332E+00
  0.2500000E+00  0.0000000E+00  0.4000000E+00  0.1831294E+00 -0.2168706E+00  0.8758763E+00  0.8758763E+00  0.1241237E+00  0.1241237E+00
  0.3000000E+00  0.0000000E+00  0.4000000E+00  0.1848896E+00 -0.2151104E+00  0.8797561E+00  0.8797561E+00  0.1202439E+00  0.1202439E+00
  0.3500000E+00  0.0000000E+00  0.4000000E+00  0.1868350E+00 -0.2131650E+00  0.8839660E+00  0.8839660E+00  0.1160340E+00  0.1160340E+00
  0.4000000E+00  0.0000000E+00  0.4000000E+00  0.1889087E+00 -0.2110913E+00  0.8883622E+00  0.8883622E+00  0.1116378E+00  0.1116378E+00
  0.4500000E+00  0.0000000E+00  0.4000000E+00  0.1910508E+00 -0.2089492E+00  0.8928030E+00  0.8928030E+00  0.1071970E+00  0.1071970E+00
  0.5000000E+00  0.0000000E+00  0.4000000E+00  0.1932001E+00 -0.2067999E+00  0.8971546E+00  0.8971546E+00  0.1028454E+00  0.1028454E+00
  0.5500000E+00  0.0000000E+00  0.4000000E+00  0.1952958E+00 -0.2047042E+00  0.9012967E+00  0.9012967E+00  0.9870335E-01  0.9870335E-01
  0.6000000E+00  0.0000000E+00  0.4000000E+00  0.1972814E+00 -0.2027186E+00  0.9051282E+00  0.9051282E+00  0.9487184E-01  0.9487184E-01
  0.6500000E+00  0.0000000E+00  0.4000000E+00  0.1991101E+00 -0.2008899E+00  0.9085762E+00  0.9085762E+00  0.9142378E-01  0.9142378E-01
  0.7000000E+00  0.0000000E+00  0.4000000E+00  0.2007455E+00 -0.1992545E+00  0.9115943E+00  0.9115943E+00  0.8840574E-01  0.8840574E-01
  0.7500000E+00  0.0000000E+00  0.4000000E+00  0.2021612E+00 -0.1978388E+00  0.9141565E+00  0.9141565E+00  0.8584345E-01  0.8584345E-01
  0.8000000E+00  0.0000000E+00  0.4000000E+00  0.2033385E+00 -0.1966615E+00  0.9162518E+00  0.9162518E+00  0.8374822E-01  0.8374822E-01
  0.8500000E+00  0.0000000E+00  0.4000000E+00  0.2042648E+00 -0.1957352E+00  0.9178774E+00  0.9178774E+00  0.8212255E-01  0.8212255E-01
  0.9000000E+00  0.0000000E+00  0.4000000E+00  0.2049316E+00 -0.1950684E+00  0.9190355E+00  0.9190355E+00  0.8096455E-01  0.8096455E-01
  0.9500000E+00  0.0000000E+00  0.4000000E+00  0.2053338E+00 -0.1946662E+00  0.9197289E+00  0.9197289E+00  0.8027113E-01  0.8027113E-01
  0.1000000E+01  0.0000000E+00  0.4000000E+00  0.2054683E+00 -0.1945317E+00  0.9199599E+00  0.9199599E+00  0.8004011E-01  0.8004011E-01
  0.0000000E+00  0.0000000E+00  0.5000000E+00  0.2427688E+00 -0.2572312E+00  0.7716032E+00  0.7716032E+00  0.2283968E+00  0.2283968E+00
  0.5000000E-01  0.0000000E+00  0.5000000E+00  0.2431823E+00 -0.2568177E+00  0.7727840E+00  0.7727840E+00  0.2272160E+00  0.2272160E+00
  0.1000000E+00  0.0000000E+00  0.5000000E+00  0.2443978E+00 -0.2556022E+00  0.7762465E+00  0.7762465E+00  0.2237535E+00  0.2237535E+00
  0.1500000E+00  0.0000000E+00  0.5000000E+00  0.2463590E+00 -0.2536410E+00  0.7818034E+00  0.7818034E+00  0.2181966E+00  0.2181966E+00
  0.2000000E+00  0.0000000E+00  0.5000000E+00  0.2489875E+00 -0.2510125E+00  0.7891902E+00  0.7891902E+00  0.2108098E+00  0.2108098E+00
  0.2500000E+00  0.0000000E+00  0.5000000E+00  0.2521905E+00 -0.2478095E+00  0.7980870E+00  0.7980870E+00  0.2019130E+00  0.2019130E+00
  0.3000000E+00  0.0000000E+00  0.5000000E+00  0.2558659E+00 -0.2441341E+00  0.8081396E+00  0.8081396E+00  0.1918604E+00  0.1918604E+00
  0.3500000E+00  0.0000000E+00  0.5000000E+00  0.2599054E+00 -0.2400946E+00  0.8189750E+00  0.8189750E+00  0.1810250E+00  0.1810250E+00
  0.4000000E+00  0.0000000E+00  0.5000000E+00  0.2641949E+00 -0.2358051E+00  0.8302112E+00  0.8302112E+00  0.1697888E+00  0.1697888E+00
  0.4500000E+00  0.0000000E+00  0.5000000E+00  0.2686112E+00 -0.2313888E+00  0.8414624E+00  0.8414624E+00  0.1585376E+00  0.1585376E+00
  0.5000000E+00  0.0000000E+00  0.5000000E+00  0.2730151E+00 -0.2269849E+00  0.8523360E+00  0.8523360E+00  0.1476640E+00  0.1476640E+00
  0.5500000E+00  0.0000000E+00  0.5000000E+00  0.2772411E+00 -0.2227589E+00  0.8624231E+00  0.8624231E+00  0.1375769E+00  0.1375769E+00
  0.6000000E+00  0.0000000E+00  0.5000000E+00  0.2810793E+00 -0.2189207E+00  0.8712742E+00  0.8712742E+00  0.1287258E+00  0.1287258E+00
  0.6500000E+00  0.0000000E+00  0.5000000E+00  0.2844427E+00 -0.2155573E+00  0.8787774E+00  0.8787774E+00  0.1212226E+00  0.1212226E+00
  0.7000000E+00  0.0000000E+00  0.5000000E+00  0.2873085E+00 -0.2126915E+00  0.8849782E+00  0.8849782E+00  0.1150218E+00  0.1150218E+00
  0.7500000E+00  0.0000000E+00  0.5000000E+00  0.2896838E+00 -0.2103162E+00  0.8899809E+00  0.8899809E+00  0.1100191E+00  0.1100191E+00
  0.8000000E+00  0.0000000E+00  0.5000000E+00  0.2915879E+00 -0.2084121E+00  0.8939003E+00  0.8939003E+00  0.1060997E+00  0.1060997E+00
  0.8500000E+00  0.0000000E+00  0.5000000E+00  0.2930427E+00 -0.2069573E+00  0.8968395E+00  0.8968395E+00  0.1031605E+00  0.1031605E+00
  0.9000000E+00  0.0000000E+00  0.5000000E+00  0.2940674E+00 -0.2059326E+00  0.8988811E+00  0.8988811E+00  0.1011189E+00  0.1011189E+00
  0.9500000E+00  0.0000000E+00  0.5000000E+00  0.2946768E+00 -0.2053232E+00  0.9000837E+00  0.9000837E+00  0.9991628E-01  0.9991628E-01
  0.1000000E+01  0.0000000E+00  0.5000000E+00  0.2948792E+00 -0.2051208E+00  0.9004813E+00  0.9004813E+00  0.9951872E-01  0.9951872E-01
  0.0000000E+00  0.0000000E+00  0.6000000E+00  0.3052190E+00 -0.2947810E+00  0.6616300E+00  0.6616300E+00  0.3383700E+00  0.3383700E+00
  0.5000000E-01  0.0000000E+00  0.6000000E+00  0.3059874E+00 -0.2940126E+00  0.6638695E+00  0.6638695E+00  0.3361305E+00  0.3361305E+00
  0.1000000E+00  0.0000000E+00  0.6000000E+00  0.3082218E+00 -0.2917782E+00  0.6703976E+00  0.6703976E+00  0.3296024E+00  0.3296024E+00
  0.1500000E+00  0.0000000E+00  0.6000000E+00  0.3117864E+00 -0.2882136E+00  0.6808537E+00  0.6808537E+00  0.3191463E+00  0.3191463E+00
  0.2000000E+00  0.0000000E+00  0.6000000E+00  0.3165210E+00 -0.2834790E+00  0.6947998E+00  0.6947998E+00  0.3052002E+00  0.3052002E+00
  0.2500000E+00  0.0000000E+00  0.6000000E+00  0.3222681E+00 -0.2777319E+00  0.7117672E+00  0.7117672E+00  0.2882328E+00  0.2882328E+00
  0.3000000E+00  0.0000000E+00  0.6000000E+00  0.3288907E+00 -0.2711093E+00  0.7312875E+00  0.7312875E+00  0.2687125E+00  0.2687125E+00
  0.3500000E+00  0.0000000E+00  0.6000000E+00  0.3362831E+00 -0.2637169E+00  0.7529058E+00  0.7529058E+00  0.2470942E+00  0.2470942E+00
  0.4000000E+00  0.0000000E+00  0.6000000E+00  0.3443744E+00 -0.2556256E+00  0.7761799E+00  0.7761799E+00  0.2238201E+00  0.2238201E+00
  0.4500000E+00  0.0000000E+00  0.6000000E+00  0.3531295E+00 -0.2468705E+00  0.8006717E+00  0.8006717E+00  0.1993283E+00  0.1993283E+00
  0.5000000E+00  0.0000000E+00  0.6000000E+00  0.3625486E+00 -0.2374514E+00  0.8259332E+00  0.8259332E+00  0.1740668E+00  0.1740668E+00
  0.5500000E+00  0.0000000E+00  0.6000000E+00  0.3726679E+00 -0.2273321E+00  0.8514920E+00  0.8514920E+00  0.1485080E+00  0.1485080E+00
  0.6000000E+00  0.0000000E+00  0.6000000E+00  0.3798190E+00 -0.2201810E+00  0.8684014E+00  0.8684014E+00  0.1315986E+00  0.1315986E+00
  0.6500000E+00  0.0000000E+00  0.6000000E+00  0.3850543E+00 -0.2149457E+00  0.8801157E+00  0.8801157E+00  0.1198843E+00  0.1198843E+00
  0.7000000E+00  0.0000000E+00  0.6000000E+00  0.3889623E+00 -0.2110377E+00  0.8884746E+00  0.8884746E+00  0.1115254E+00  0.1115254E+00
  0.7500000E+00  0.0000000E+00  0.6000000E+00  0.3918977E+00 -0.2081023E+00  0.8945302E+00  0.8945302E+00  0.1054698E+00  0.1054698E+00
  0.8000000E+00  0.0000000E+00  0.6000000E+00  0.3940847E+00 -0.2059153E+00  0.8989152E+00  0.8989152E+00  0.1010848E+00  0.1010848E+00
  0.8500000E+00  0.0000000E+00  0.6000000E+00  0.3956684E+00 -0.2043316E+00  0.9020226E+00  0.9020226E+00  0.9797742E-01  0.9797742E-01
  0.9000000E+00  0.0000000E+00  0.6000000E+00  0.3967430E+00 -0.2032570E+00  0.9040981E+00  0.9040981E+00  0.9590190E-01  0.9590190E-01
  0.9500000E+00  0.0000000E+00  0.6000000E+00  0.3973668E+00 -0.2026332E+00  0.9052909E+00  0.9052909E+00  0.9470907E-01  0.9470907E-01
  0.1000000E+01  0.0000000E+00  0.6000000E+00  0.3975716E+00 -0.2024284E+00  0.9056806E+00  0.9056806E+00  0.9431943E-01  0.9431943E-01
  0.0000000E+00  0.0000000E+00  0.7000000E+00  0.4572233E+00 -0.2427767E+00  0.8118065E+00  0.8118065E+00  0.1881935E+00  0.1881935E+00
  0.5000000E-01  0.0000000E+00  0.7000000E+00  0.4573493E+00 -0.2426507E+00  0.8121455E+00  0.8121455E+00  0.1878545E+00  0.1878545E+00
  0.1000000E+00  0.0000000E+00  0.7000000E+00  0.4577170E+00 -0.2422830E+00  0.8131338E+00  0.8131338E+00  0.1868662E+00  0.1868662E+00
  0.1500000E+00  0.0000000E+00  0.7000000E+00  0.4583071E+00 -0.2416929E+00  0.8147159E+00  0.8147159E+00  0.1852841E+00  0.1852841E+00
  0.2000000E+00  0.0000000E+00  0.7000000E+00  0.4591066E+00 -0.2408934E+00  0.8168511E+00  0.8168511E+00  0.1831489E+00  0.1831489E+00
  0.2500000E+00  0.0000000E+00  0.7000000E+00  0.4601325E+00 -0.2398675E+00  0.8195768E+00  0.8195768E+00  0.1804232E+00  0.1804232E+00
  0.3000000E+00  0.0000000E+00  0.7000000E+00  0.4614811E+00 -0.2385189E+00  0.8231359E+00  0.8231359E+00  0.1768641E+00  0.1768641E+00
  0.3500000E+00  0.0000000E+00  0.7000000E+00  0.4634480E+00 -0.2365520E+00  0.8282757E+00  0.8282757E+00  0.1717243E+00  0.1717243E+00
  0.4000000E+00  0.0000000E+00  0.7000000E+00  0.4668244E+00 -0.2331756E+00  0.8369508E+00  0.8369508E+00  0.1630492E+00  0.1630492E+00
  0.4500000E+00  0.0000000E+00  0.7000000E+00  0.4735517E+00 -0.2264483E+00  0.8536360E+00  0.8536360E+00  0.1463640E+00  0.1463640E+00
  0.5000000E+00  0.0000000E+00  0.7000000E+00  0.4877097E+00 -0.2122903E+00  0.8858319E+00  0.8858319E+00  0.1141681E+00  0.1141681E+00
  0.5500000E+00  0.0000000E+00  0.7000000E+00  0.5036811E+00 -0.1963189E+00  0.9168554E+00  0.9168554E+00  0.8314462E-01  0.8314462E-01
  0.6000000E+00  0.0000000E+00  0.7000000E+00  0.5039833E+00 -0.1960167E+00  0.9173856E+00  0.9173856E+00  0.8261439E-01  0.8261439E-01
  0.6500000E+00  0.0000000E+00  0.7000000E+00  0.5044308E+00 -0.1955692E+00  0.9181667E+00  0.9181667E+00  0.8183327E-01  0.8183327E-01
  0.7000000E+00  0.0000000E+00  0.7000000E+00  0.5049254E+00 -0.1950746E+00  0.9190247E+00  0.9190247E+00  0.8097534E-01  0.8097534E-01
  0.7500000E+00  0.0000000E+00  0.7000000E+00  0.5054055E+00 -0.1945945E+00  0.9198521E+00  0.9198521E+00  0.8014791E-01  0.8014791E-01
  0.8000000E+00  0.0000000E+00  0.7000000E+00  0.5058327E+00 -0.1941673E+00  0.9205837E+00  0.9205837E+00  0.7941633E-01  0.7941633E-01
  0.8500000E+00  0.0000000E+00  0.7000000E+00  0.5061828E+00 -0.1938172E+00  0.9211802E+00  0.9211802E+00  0.7881981E-01  0.7881981E-01
  0.9000000E+00  0.0000000E+00  0.7000000E+00  0.5064413E+00 -0.1935587E+00  0.9216187E+00  0.9216187E+00  0.7838134E-01  0.7838134E-01
  0.9500000E+00  0.0000000E+00  0.7000000E+00  0.5065994E+00 -0.1934006E+00  0.9218861E+00  0.9218861E+00  0.7811389E-01  0.7811389E-01
  0.1000000E+01  0.0000000E+00  0.7000000E+00  0.5066526E+00 -0.1933474E+00  0.9219759E+00  0.9219759E+00  0.7802405E-01  0.7802405E-01
  0.0000000E+00  0.0000000E+00  0.8000000E+00  0.6135377E+00 -0.1864623E+00  0.9330497E+00  0.9330497E+00  0.6695029E-01  0.6695029E-01
  0.5000000E-01  0.0000000E+00  0.8000000E+00  0.6134421E+00 -0.1865579E+00  0.9329036E+00  0.9329036E+00  0.6709643E-01  0.6709643E-01
  0.1000000E+00  0.0000000E+00  0.8000000E+00  0.6131524E+00 -0.1868476E+00  0.9324591E+00  0.9324591E+00  0.6754090E-01  0.6754090E-01
  0.1500000E+00  0.0000000E+00  0.8000000E+00  0.6126618E+00 -0.1873382E+00  0.9317021E+00  0.9317021E+00  0.6829795E-01  0.6829795E-01
  0.2000000E+00  0.0000000E+00  0.8000000E+00  0.6119686E+00 -0.1880314E+00  0.9306229E+00  0.9306229E+00  0.6937709E-01  0.6937709E-01
  0.2500000E+00  0.0000000E+00  0.8000000E+00  0.6110923E+00 -0.1889077E+00  0.9292429E+00  0.9292429E+00  0.7075711E-01  0.7075711E-01
  0.3000000E+00  0.0000000E+00  0.8000000E+00  0.6101029E+00 -0.1898971E+00  0.9276632E+00  0.9276632E+00  0.7233680E-01  0.7233680E-01
  0.3500000E+00  0.0000000E+00  0.8000000E+00  0.6091698E+00 -0.1908302E+00  0.9261525E+00  0.9261525E+00  0.7384750E-01  0.7384750E-01
  0.4000000E+00  0.0000000E+00  0.8000000E+00  0.6086341E+00 -0.1913659E+00  0.9252760E+00  0.9252760E+00  0.7472398E-01  0.7472398E-01
  0.4500000E+00  0.0000000E+00  0.8000000E+00  0.6090684E+00 -0.1909316E+00  0.9259872E+00  0.9259872E+00  0.7401284E-01  0.7401284E-01
  0.5000000E+00  0.0000000E+00  0.8000000E+00  0.6111376E+00 -0.1888624E+00  0.9293146E+00  0.9293146E+00  0.7068535E-01  0.7068535E-01
  0.5500000E+00  0.0000000E+00  0.8000000E+00  0.6130511E+00 -0.1869489E+00  0.9323032E+00  0.9323032E+00  0.6769679E-01  0.6769679E-01
  0.6000000E+00  0.0000000E+00  0.8000000E+00  0.6130783E+00 -0.1869217E+00  0.9323451E+00  0.9323451E+00  0.6765491E-01  0.6765491E-01
  0.6500000E+00  0.0000000E+00  0.8000000E+00  0.6131270E+00 -0.1868730E+00  0.9324200E+00  0.9324200E+00  0.6757997E-01  0.6757997E-01
  0.7000000E+00  0.0000000E+00  0.8000000E+00  0.6131893E+00 -0.1868107E+00  0.9325158E+00  0.9325158E+00  0.6748416E-01  0.6748416E-01
  0.7500000E+00  0.0000000E+00  0.8000000E+00  0.6132571E+00 -0.1867429E+00  0.9326200E+00  0.9326200E+00  0.6738003E-01  0.6738003E-01
  0.8000000E+00  0.0000000E+00  0.8000000E+00  0.6133230E+00 -0.1866770E+00  0.9327210E+00  0.9327210E+00  0.6727897E-01  0.6727897E-01
  0.8500000E+00  0.0000000E+00  0.8000000E+00  0.6133807E+00 -0.1866193E+00  0.9328095E+00  0.9328095E+00  0.6719052E-01  0.6719052E-01
  0.9000000E+00  0.0000000E+00  0.8000000E+00  0.6134253E+00 -0.1865747E+00  0.9328779E+00  0.9328779E+00  0.6712211E-01  0.6712211E-01
  0.9500000E+00  0.0000000E+00  0.8000000E+00  0.6134535E+00 -0.1865465E+00  0.9329210E+00  0.9329210E+00  0.6707898E-01  0.6707898E-01
  0.1000000E+01  0.0000000E+00  0.8000000E+00  0.6134631E+00 -0.1865369E+00  0.9329357E+00  0.9329357E+00  0.6706426E-01  0.6706426E-01
  0.0000000E+00  0.0000000E+00  0.9000000E+00  0.7426582E+00 -0.1573418E+00  0.9682091E+00  0.9682091E+00  0.3179090E-01  0.3179090E-01
  0.5000000E-01  0.0000000E+00  0.9000000E+00  0.7424382E+00 -0.1575618E+00  0.9680090E+00  0.9680090E+00  0.3199096E-01  0.3199096E-01
  0.1000000E+00  0.0000000E+00  0.9000000E+00  0.7417728E+00 -0.1582272E+00  0.9673986E+00  0.9673986E+00  0.3260137E-01  0.3260137E-01
  0.1500000E+00  0.0000000E+00  0.9000000E+00  0.7406468E+00 -0.1593532E+00  0.9663463E+00  0.9663463E+00  0.3365367E-01  0.3365367E-01
  0.2000000E+00  0.0000000E+00  0.9000000E+00  0.7390382E+00 -0.1609618E+00  0.9648005E+00  0.9648005E+00  0.3519953E-01  0.3519953E-01
  0.2500000E+00  0.0000000E+00  0.9000000E+00  0.7369252E+00 -0.1630748E+00  0.9626926E+00  0.9626926E+00  0.3730738E-01  0.3730738E-01
  0.3000000E+00  0.0000000E+00  0.9000000E+00  0.7342970E+00 -0.1657030E+00  0.9599460E+00  0.9599460E+00  0.4005404E-01  0.4005404E-01
  0.3500000E+00  0.0000000E+00  0.9000000E+00  0.7311690E+00 -0.1688310E+00  0.9564921E+00  0.9564921E+00  0.4350788E-01  0.4350788E-01
  0.4000000E+00  0.0000000E+00  0.9000000E+00  0.7275991E+00 -0.1724009E+00  0.9522987E+00  0.9522987E+00  0.4770131E-01  0.4770131E-01
  0.4500000E+00  0.0000000E+00  0.9000000E+00  0.7236963E+00 -0.1763037E+00  0.9473991E+00  0.9473991E+00  0.5260093E-01  0.5260093E-01
  0.5000000E+00  0.0000000E+00  0.9000000E+00  0.7195974E+00 -0.1804026E+00  0.9418905E+00  0.9418905E+00  0.5810949E-01  0.5810949E-01
  0.5500000E+00  0.0000000E+00  0.9000000E+00  0.7174991E+00 -0.1825009E+00  0.9389241E+00  0.9389241E+00  0.6107590E-01  0.6107590E-01
  0.6000000E+00  0.0000000E+00  0.9000000E+00  0.7175020E+00 -0.1824980E+00  0.9389284E+00  0.9389284E+00  0.6107164E-01  0.6107164E-01
  0.6500000E+00  0.0000000E+00  0.9000000E+00  0.7175075E+00 -0.1824925E+00  0.9389363E+00  0.9389363E+00  0.6106371E-01  0.6106371E-01
  0.7000000E+00  0.0000000E+00  0.9000000E+00  0.7175149E+00 -0.1824851E+00  0.9389469E+00  0.9389469E+00  0.6105313E-01  0.6105313E-01
  0.7500000E+00  0.0000000E+00  0.9000000E+00  0.7175232E+00 -0.1824768E+00  0.9389588E+00  0.9389588E+00  0.6104118E-01  0.6104118E-01
  0.8000000E+00  0.0000000E+00  0.9000000E+00  0.7175316E+00 -0.1824684E+00  0.9389708E+00  0.9389708E+00  0.6102918E-01  0.6102918E-01
  0.8500000E+00  0.0000000E+00  0.9000000E+00  0.7175391E+00 -0.1824609E+00  0.9389816E+00  0.9389816E+00  0.6101840E-01  0.6101840E-01
  0.9000000E+00  0.0000000E+00  0.9000000E+00  0.7175450E+00 -0.1824550E+00  0.9389901E+00  0.9389901E+00  0.6100988E-01  0.6100988E-01
  0.9500000E+00  0.0000000E+00  0.9000000E+00  0.7175488E+00 -0.1824512E+00  0.9389956E+00  0.9389956E+00  0.6100443E-01  0.6100443E-01
  0.1000000E+01  0.0000000E+00  0.9000000E+00  0.7175501E+00 -0.1824499E+00  0.9389974E+00  0.9389974E+00  0.6100256E-01  0.6100256E-01
  0.0000000E+00  0.0000000E+00  0.1000000E+01  0.8625306E+00 -0.1374694E+00  0.9827820E+00  0.9827820E+00  0.1721796E-01  0.1721796E-01
  0.5000000E-01  0.0000000E+00  0.1000000E+01  0.8622134E+00 -0.1377866E+00  0.9825991E+00  0.9825991E+00  0.1740085E-01  0.1740085E-01
  0.1000000E+00  0.0000000E+00  0.1000000E+01  0.8612528E+00 -0.1387472E+00  0.9820363E+00  0.9820363E+00  0.1796374E-01  0.1796374E-01
  0.1500000E+00  0.0000000E+00  0.1000000E+01  0.8596201E+00 -0.1403799E+00  0.9810481E+00  0.9810481E+00  0.1895189E-01  0.1895189E-01
  0.2000000E+00  0.0000000E+00  0.1000000E+01  0.8572678E+00 -0.1427322E+00  0.9795531E+00  0.9795531E+00  0.2044686E-01  0.2044686E-01
  0.2500000E+00  0.0000000E+00  0.1000000E+01  0.8541318E+00 -0.1458682E+00  0.9774244E+00  0.9774244E+00  0.2257558E-01  0.2257558E-01
  0.3000000E+00  0.0000000E+00  0.1000000E+01  0.8501354E+00 -0.1498646E+00  0.9744768E+00  0.9744768E+00  0.2552317E-01  0.2552317E-01