title = "dataset ex11"
variables = "x", "y", "z", "K_xx", "K_yy", "K_zz"
zone t = "K - initial [m/s]", i =   41, j =    1, k =    1,  f=point
  0.0000000E+00  0.0000000E+00  0.0000000E+00  0.0000000E+00  0.0000000E+00  0.1390000E-04
  0.0000000E+00  0.0000000E+00  0.2000000E-01  0.0000000E+00  0.0000000E+00  0.1390000E-04
  0.0000000E+00  0.0000000E+00  0.4000000E-01  0.0000000E+00  0.0000000E+00  0.1390000E-04
  0.0000000E+00  0.0000000E+00  0.6000000E-01  0.0000000E+00  0.0000000E+00  0.1390000E-04
  0.0000000E+00  0.0000000E+00  0.8000000E-01  0.0000000E+00  0.0000000E+00  0.1390000E-04
  0.0000000E+00  0.0000000E+00  0.1000000E+00  0.0000000E+00  0.0000000E+00  0.1390000E-04
  0.0000000E+00  0.0000000E+00  0.1200000E+00  0.0000000E+00  0.0000000E+00  0.1390000E-04
  0.0000000E+00  0.0000000E+00  0.1400000E+00  0.0000000E+00  0.0000000E+00  0.1390000E-04
  0.0000000E+00  0.0000000E+00  0.1600000E+00  0.0000000E+00  0.0000000E+00  0.1390000E-04
  0.0000000E+00  0.0000000E+00  0.1800000E+00  0.0000000E+00  0.0000000E+00  0.1390000E-04
  0.0000000E+00  0.0000000E+00  0.2000000E+00  0.0000000E+00  0.0000000E+00  0.1390000E-04
  0.0000000E+00  0.0000000E+00  0.2200000E+00  0.0000000E+00  0.0000000E+00  0.1390000E-04
  0.0000000E+00  0.0000000E+00  0.2400000E+00  0.0000000E+00  0.0000000E+00  0.1390000E-04
  0.0000000E+00  0.0000000E+00  0.2600000E+00  0.0000000E+00  0.0000000E+00  0.1390000E-04
  0.0000000E+00  0.0000000E+00  0.2800000E+00  0.0000000E+00  0.0000000E+00  0.1390000E-04
  0.0000000E+00  0.0000000E+00  0.3000000E+00  0.0000000E+00  0.0000000E+00  0.1390000E-04
  0.0000000E+00  0.0000000E+00  0.3200000E+00  0.0000000E+00  0.0000000E+00  0.1390000E-04
  0.0000000E+00  0.0000000E+00  0.3400000E+00  0.0000000E+00  0.0000000E+00  0.1390000E-04
  0.0000000E+00  0.0000000E+00  0.3600000E+00  0.0000000E+00  0.0000000E+00  0.1390000E-04
  0.0000000E+00  0.0000000E+00  0.3800000E+00  0.0000000E+00  0.0000000E+00  0.1390000E-04
  0.0000000E+00  0.0000000E+00  0.4000000E+00  0.0000000E+00  0.0000000E+00  0.1390000E-04
  0.0000000E+00  0.0000000E+00  0.4200000E+00  0.0000000E+00  0.0000000E+00  0.1390000E-04
  0.0000000E+00  0.0000000E+00  0.4400000E+00  0.0000000E+00  0.0000000E+00  0.1390000E-04
  0.0000000E+00  0.0000000E+00  0.4600000E+00  0.0000000E+00  0.0000000E+00  0.1390000E-04
  0.0000000E+00  0.0000000E+00  0.4800000E+00  0.0000000E+00  0.0000000E+00  0.1390000E-04
  0.0000000E+00  0.0000000E+00  0.5000000E+00  0.0000000E+00  0.0000000E+00  0.1390000E-04
  0.0000000E+00  0.0000000E+00  0.5200000E+00  0.0000000E+00  0.0000000E+00  0.1390000E-04
  0.0000000E+00  0.0000000E+00  0.5400000E+00  0.0000000E+00  0.0000000E+00  0.1390000E-04
  0.0000000E+00  0.0000000E+00  0.5600000E+00  0.0000000E+00  0.0000000E+00  0.1390000E-04
  0.0000000E+00  0.0000000E+00  0.5800000E+00  0.0000000E+00  0.0000000E+00  0.1390000E-04
  0.0000000E+00  0.0000000E+00  0.6000000E+00  0.0000000E+00  0.0000000E+00  0.1390000E-04
  0.0000000E+00  0.0000000E+00  0.6200000E+00  0.0000000E+00  0.0000000E+00  0.1390000E-04
  0.0000000E+00  0.0000000E+00  0.6400000E+00  0.0000000E+00  0.0000000E+00  0.1390000E-04
  0.0000000E+00  0.0000000E+00  0.6600000E+00  0.0000000E+00  0.0000000E+00  0.1390000E-04
  0.0000000E+00  0.0000000E+00  0.6800000E+00  0.0000000E+00  0.0000000E+00  0.1390000E-04
  0.0000000E+00  0.0000000E+00  0.7000000E+00  0.0000000E+00  0.0000000E+00  0.1390000E-04
  0.0000000E+00  0.0000000E+00  0.7200000E+00  0.0000000E+00  0.0000000E+00  0.1390000E-04
  0.0000000E+00  0.0000000E+00  0.7400000E+00  0.0000000E+00  0.0000000E+00  0.1390000E-04
  0.0000000E+00  0.0000000E+00  0.7600000E+00  0.0000000E+00  0.0000000E+00  0.1390000E-04
  0.0000000E+00  0.0000000E+00  0.7800000E+00  0.0000000E+00  0.0000000E+00  0.1390000E-04
  0.0000000E+00  0.0000000E+00  0.8000000E+00  0.0000000E+00  0.0000000E+00  0.1390000E-04
