title = "dataset perm3"
variables = "x", "y", "z","calcite","gypsum","porosity"
zone t = "phi_i, T =  2.000E+01 years", i =   81, j =    1, k =    1,  f=point
   .0000000E+00   .0000000E+00   .0000000E+00   .1000000E-09   .1000000E-09   .6500000E+00
   .0000000E+00   .0000000E+00   .2500000E-02   .1000000E-09   .1000000E-09   .6500000E+00
   .0000000E+00   .0000000E+00   .5000000E-02   .1000000E-09   .1000000E-09   .6500000E+00
   .0000000E+00   .0000000E+00   .7500000E-02   .1000000E-09   .1000000E-09   .6500000E+00
   .0000000E+00   .0000000E+00   .1000000E-01   .1000000E-09   .1000000E-09   .6500000E+00
   .0000000E+00   .0000000E+00   .1250000E-01   .1000000E-09   .1000000E-09   .6500000E+00
   .0000000E+00   .0000000E+00   .1500000E-01   .1370090E-03   .1000000E-09   .6498218E+00
   .0000000E+00   .0000000E+00   .1750000E-01   .2150958E-02   .1000000E-09   .6476172E+00
   .0000000E+00   .0000000E+00   .2000000E-01   .8299763E-02   .1000000E-09   .6411440E+00
   .0000000E+00   .0000000E+00   .2250000E-01   .2053472E-01   .1000000E-09   .6284592E+00
   .0000000E+00   .0000000E+00   .2500000E-01   .4097812E-01   .1000000E-09   .6074377E+00
   .0000000E+00   .0000000E+00   .2750000E-01   .7223373E-01   .1186281E+00   .4520823E+00
   .0000000E+00   .0000000E+00   .3000000E-01   .1164680E+00   .1858551E+00   .3430116E+00
   .0000000E+00   .0000000E+00   .3250000E-01   .1708791E+00   .2040408E+00   .2724654E+00
   .0000000E+00   .0000000E+00   .3500000E-01   .2225176E+00   .1889926E+00   .2377904E+00
   .0000000E+00   .0000000E+00   .3750000E-01   .2578290E+00   .1591172E+00   .2337011E+00
   .0000000E+00   .0000000E+00   .4000000E-01   .2766379E+00   .1274815E+00   .2470564E+00
   .0000000E+00   .0000000E+00   .4250000E-01   .2857811E+00   .9974761E-01   .2656617E+00
   .0000000E+00   .0000000E+00   .4500000E-01   .2904373E+00   .7722332E-01   .2833550E+00
   .0000000E+00   .0000000E+00   .4750000E-01   .2931107E+00   .5951791E-01   .2981816E+00
   .0000000E+00   .0000000E+00   .5000000E-01   .2948466E+00   .4579280E-01   .3099890E+00
   .0000000E+00   .0000000E+00   .5250000E-01   .2960753E+00   .3521438E-01   .3191920E+00
   .0000000E+00   .0000000E+00   .5500000E-01   .2969873E+00   .2707844E-01   .3263017E+00
   .0000000E+00   .0000000E+00   .5750000E-01   .2976800E+00   .2082517E-01   .3317746E+00
   .0000000E+00   .0000000E+00   .6000000E-01   .2982112E+00   .1601895E-01   .3359828E+00
   .0000000E+00   .0000000E+00   .6250000E-01   .2986202E+00   .1232424E-01   .3392176E+00
   .0000000E+00   .0000000E+00   .6500000E-01   .2989355E+00   .9483297E-02   .3417046E+00
   .0000000E+00   .0000000E+00   .6750000E-01   .2991786E+00   .7298305E-02   .3436170E+00
   .0000000E+00   .0000000E+00   .7000000E-01   .2993660E+00   .5617471E-02   .3450880E+00
   .0000000E+00   .0000000E+00   .7250000E-01   .2995105E+00   .4324248E-02   .3462197E+00
   .0000000E+00   .0000000E+00   .7500000E-01   .2996218E+00   .3329034E-02   .3470906E+00
   .0000000E+00   .0000000E+00   .7750000E-01   .2997076E+00   .2563164E-02   .3477608E+00
   .0000000E+00   .0000000E+00   .8000000E-01   .2997737E+00   .1973675E-02   .3482767E+00
   .0000000E+00   .0000000E+00   .8250000E-01   .2998246E+00   .1519883E-02   .3486738E+00
   .0000000E+00   .0000000E+00   .8500000E-01   .2998638E+00   .1170509E-02   .3489796E+00
   .0000000E+00   .0000000E+00   .8750000E-01   .2998940E+00   .9015464E-03   .3492151E+00
   .0000000E+00   .0000000E+00   .9000000E-01   .2999173E+00   .6945187E-03   .3493963E+00
   .0000000E+00   .0000000E+00   .9250000E-01   .2999352E+00   .5351186E-03   .3495359E+00
   .0000000E+00   .0000000E+00   .9500000E-01   .2999490E+00   .4123797E-03   .3496433E+00
   .0000000E+00   .0000000E+00   .9750000E-01   .2999596E+00   .3178596E-03   .3497261E+00
   .0000000E+00   .0000000E+00   .1000000E+00   .2999678E+00   .2450575E-03   .3497898E+00
   .0000000E+00   .0000000E+00   .1025000E+00   .2999741E+00   .1889669E-03   .3498390E+00
   .0000000E+00   .0000000E+00   .1050000E+00   .2999790E+00   .1457311E-03   .3498768E+00
   .0000000E+00   .0000000E+00   .1075000E+00   .2999828E+00   .1125533E-03   .3499059E+00
   .0000000E+00   .0000000E+00   .1100000E+00   .2999856E+00   .8703613E-04   .3499282E+00
   .0000000E+00   .0000000E+00   .1125000E+00   .2999879E+00   .6740799E-04   .3499454E+00
   .0000000E+00   .0000000E+00   .1150000E+00   .2999896E+00   .5231238E-04   .3499587E+00
   .0000000E+00   .0000000E+00   .1175000E+00   .2999909E+00   .4070340E-04   .3499688E+00
   .0000000E+00   .0000000E+00   .1200000E+00   .2999919E+00   .3177419E-04   .3499766E+00
   .0000000E+00   .0000000E+00   .1225000E+00   .2999927E+00   .2490187E-04   .3499827E+00
   .0000000E+00   .0000000E+00   .1250000E+00   .2999933E+00   .1960518E-04   .3499873E+00
   .0000000E+00   .0000000E+00   .1275000E+00   .2999937E+00   .1551189E-04   .3499909E+00
   .0000000E+00   .0000000E+00   .1300000E+00   .2999941E+00   .1233366E-04   .3499937E+00
   .0000000E+00   .0000000E+00   .1325000E+00   .2999943E+00   .9846796E-05   .3499959E+00
   .0000000E+00   .0000000E+00   .1350000E+00   .2999945E+00   .8094162E-05   .3499974E+00
   .0000000E+00   .0000000E+00   .1375000E+00   .2999947E+00   .6830744E-05   .3499985E+00
   .0000000E+00   .0000000E+00   .1400000E+00   .2999948E+00   .5907485E-05   .3499994E+00
   .0000000E+00   .0000000E+00   .1425000E+00   .2999948E+00   .5244817E-05   .3499999E+00
   .0000000E+00   .0000000E+00   .1450000E+00   .2999949E+00   .4780628E-05   .3500004E+00
   .0000000E+00   .0000000E+00   .1475000E+00   .2999949E+00   .4466226E-05   .3500007E+00
   .0000000E+00   .0000000E+00   .1500000E+00   .2999949E+00   .4263222E-05   .3500009E+00
   .0000000E+00   .0000000E+00   .1525000E+00   .2999949E+00   .4141137E-05   .3500010E+00
   .0000000E+00   .0000000E+00   .1550000E+00   .2999949E+00   .4075570E-05   .3500011E+00
   .0000000E+00   .0000000E+00   .1575000E+00   .2999948E+00   .4046792E-05   .3500011E+00
   .0000000E+00   .0000000E+00   .1600000E+00   .2999948E+00   .4038674E-05   .3500012E+00
   .0000000E+00   .0000000E+00   .1625000E+00   .2999947E+00   .4037868E-05   .3500012E+00
   .0000000E+00   .0000000E+00   .1650000E+00   .2999947E+00   .4033184E-05   .3500013E+00
   .0000000E+00   .0000000E+00   .1675000E+00   .2999946E+00   .4015122E-05   .3500013E+00
   .0000000E+00   .0000000E+00   .1700000E+00   .2999946E+00   .3975511E-05   .3500014E+00
   .0000000E+00   .0000000E+00   .1725000E+00   .2999945E+00   .3907250E-05   .3500015E+00
   .0000000E+00   .0000000E+00   .1750000E+00   .2999945E+00   .3804102E-05   .3500017E+00
   .0000000E+00   .0000000E+00   .1775000E+00   .2999945E+00   .3660552E-05   .3500019E+00
   .0000000E+00   .0000000E+00   .1800000E+00   .2999944E+00   .3671438E-05   .3500019E+00
   .0000000E+00   .0000000E+00   .1825000E+00   .2999943E+00   .3920000E-05   .3500018E+00
   .0000000E+00   .0000000E+00   .1850000E+00   .2999942E+00   .4176095E-05   .3500016E+00
   .0000000E+00   .0000000E+00   .1875000E+00   .2999941E+00   .4436251E-05   .3500014E+00
   .0000000E+00   .0000000E+00   .1900000E+00   .2999940E+00   .4697332E-05   .3500013E+00
   .0000000E+00   .0000000E+00   .1925000E+00   .2999939E+00   .4956451E-05   .3500011E+00
   .0000000E+00   .0000000E+00   .1950000E+00   .2999938E+00   .5210913E-05   .3500009E+00
   .0000000E+00   .0000000E+00   .1975000E+00   .2999938E+00   .5458169E-05   .3500008E+00
   .0000000E+00   .0000000E+00   .2000000E+00   .2999939E+00   .5581099E-05   .3500006E+00
