title = "dataset perm3"
variables = "x", "y", "z","calcite","gypsum","porosity"
zone t = "phi_i, T =  5.000E+01 years", i =   81, j =    1, k =    1,  f=point
   .0000000E+00   .0000000E+00   .0000000E+00   .1000000E-09   .1000000E-09   .6500000E+00
   .0000000E+00   .0000000E+00   .2500000E-02   .1000000E-09   .1000000E-09   .6500000E+00
   .0000000E+00   .0000000E+00   .5000000E-02   .1000000E-09   .1000000E-09   .6500000E+00
   .0000000E+00   .0000000E+00   .7500000E-02   .1000000E-09   .1000000E-09   .6500000E+00
   .0000000E+00   .0000000E+00   .1000000E-01   .1000000E-09   .1000000E-09   .6500000E+00
   .0000000E+00   .0000000E+00   .1250000E-01   .1000000E-09   .1000000E-09   .6500000E+00
   .0000000E+00   .0000000E+00   .1500000E-01   .1000000E-09   .1000000E-09   .6500000E+00
   .0000000E+00   .0000000E+00   .1750000E-01   .1000000E-09   .1000000E-09   .6500000E+00
   .0000000E+00   .0000000E+00   .2000000E-01   .1000000E-09   .1000000E-09   .6500000E+00
   .0000000E+00   .0000000E+00   .2250000E-01   .1000000E-09   .1000000E-09   .6500000E+00
   .0000000E+00   .0000000E+00   .2500000E-01   .1000000E-09   .1000000E-09   .6500000E+00
   .0000000E+00   .0000000E+00   .2750000E-01   .1000000E-09   .1000000E-09   .6500000E+00
   .0000000E+00   .0000000E+00   .3000000E-01   .1000000E-09   .1000000E-09   .6500000E+00
   .0000000E+00   .0000000E+00   .3250000E-01   .1000000E-09   .1000000E-09   .6500000E+00
   .0000000E+00   .0000000E+00   .3500000E-01   .1000000E-09   .1000000E-09   .6500000E+00
   .0000000E+00   .0000000E+00   .3750000E-01   .1000000E-09   .1000000E-09   .6500000E+00
   .0000000E+00   .0000000E+00   .4000000E-01   .1000000E-09   .1000000E-09   .6500000E+00
   .0000000E+00   .0000000E+00   .4250000E-01   .1000000E-09   .1000000E-09   .6500000E+00
   .0000000E+00   .0000000E+00   .4500000E-01   .1000000E-09   .1000000E-09   .6500000E+00
   .0000000E+00   .0000000E+00   .4750000E-01   .1000000E-09   .1000000E-09   .6500000E+00
   .0000000E+00   .0000000E+00   .5000000E-01   .1000000E-09   .2893375E+00   .3597920E+00
   .0000000E+00   .0000000E+00   .5250000E-01   .1000000E-09   .4884141E+00   .1615010E+00
   .0000000E+00   .0000000E+00   .5500000E-01   .2202393E-01   .5831874E+00   .4515127E-01
   .0000000E+00   .0000000E+00   .5750000E-01   .1829641E+00   .4190299E+00   .4817433E-01
   .0000000E+00   .0000000E+00   .6000000E-01   .2569614E+00   .2659211E+00   .1271516E+00
   .0000000E+00   .0000000E+00   .6250000E-01   .2785485E+00   .1715661E+00   .1998901E+00
   .0000000E+00   .0000000E+00   .6500000E-01   .2869964E+00   .1135662E+00   .2494380E+00
   .0000000E+00   .0000000E+00   .6750000E-01   .2914201E+00   .7674000E-01   .2818400E+00
   .0000000E+00   .0000000E+00   .7000000E-01   .2941334E+00   .5267672E-01   .3031899E+00
   .0000000E+00   .0000000E+00   .7250000E-01   .2959177E+00   .3660123E-01   .3174811E+00
   .0000000E+00   .0000000E+00   .7500000E-01   .2971287E+00   .2567854E-01   .3271928E+00
   .0000000E+00   .0000000E+00   .7750000E-01   .2979645E+00   .1815835E-01   .3338771E+00
   .0000000E+00   .0000000E+00   .8000000E-01   .2985477E+00   .1292567E-01   .3385266E+00
   .0000000E+00   .0000000E+00   .8250000E-01   .2989580E+00   .9252924E-02   .3417891E+00
   .0000000E+00   .0000000E+00   .8500000E-01   .2992486E+00   .6656246E-02   .3440952E+00
   .0000000E+00   .0000000E+00   .8750000E-01   .2994556E+00   .4808965E-02   .3457355E+00
   .0000000E+00   .0000000E+00   .9000000E-01   .2996037E+00   .3487759E-02   .3469085E+00
   .0000000E+00   .0000000E+00   .9250000E-01   .2997103E+00   .2538301E-02   .3477514E+00
   .0000000E+00   .0000000E+00   .9500000E-01   .2997872E+00   .1853122E-02   .3483597E+00
   .0000000E+00   .0000000E+00   .9750000E-01   .2998429E+00   .1356790E-02   .3488003E+00
   .0000000E+00   .0000000E+00   .1000000E+00   .2998835E+00   .9960228E-03   .3491205E+00
   .0000000E+00   .0000000E+00   .1025000E+00   .2999130E+00   .7329676E-03   .3493540E+00
   .0000000E+00   .0000000E+00   .1050000E+00   .2999346E+00   .5405966E-03   .3495248E+00
   .0000000E+00   .0000000E+00   .1075000E+00   .2999505E+00   .3996992E-03   .3496498E+00
   .0000000E+00   .0000000E+00   .1100000E+00   .2999621E+00   .2962067E-03   .3497417E+00
   .0000000E+00   .0000000E+00   .1125000E+00   .2999707E+00   .2200208E-03   .3498093E+00
   .0000000E+00   .0000000E+00   .1150000E+00   .2999770E+00   .1638258E-03   .3498591E+00
   .0000000E+00   .0000000E+00   .1175000E+00   .2999817E+00   .1222990E-03   .3498960E+00
   .0000000E+00   .0000000E+00   .1200000E+00   .2999852E+00   .9155644E-04   .3499233E+00
   .0000000E+00   .0000000E+00   .1225000E+00   .2999877E+00   .6875586E-04   .3499435E+00
   .0000000E+00   .0000000E+00   .1250000E+00   .2999896E+00   .5181187E-04   .3499585E+00
   .0000000E+00   .0000000E+00   .1275000E+00   .2999911E+00   .3919041E-04   .3499698E+00
   .0000000E+00   .0000000E+00   .1300000E+00   .2999921E+00   .2976010E-04   .3499781E+00
   .0000000E+00   .0000000E+00   .1325000E+00   .2999929E+00   .2268441E-04   .3499844E+00
   .0000000E+00   .0000000E+00   .1350000E+00   .2999935E+00   .1756000E-04   .3499890E+00
   .0000000E+00   .0000000E+00   .1375000E+00   .2999939E+00   .1381650E-04   .3499923E+00
   .0000000E+00   .0000000E+00   .1400000E+00   .2999942E+00   .1106722E-04   .3499947E+00
   .0000000E+00   .0000000E+00   .1425000E+00   .2999944E+00   .9058850E-05   .3499965E+00
   .0000000E+00   .0000000E+00   .1450000E+00   .2999946E+00   .7602049E-05   .3499978E+00
   .0000000E+00   .0000000E+00   .1475000E+00   .2999947E+00   .6554862E-05   .3499988E+00
   .0000000E+00   .0000000E+00   .1500000E+00   .2999947E+00   .5810452E-05   .3499995E+00
   .0000000E+00   .0000000E+00   .1525000E+00   .2999947E+00   .5288052E-05   .3500000E+00
   .0000000E+00   .0000000E+00   .1550000E+00   .2999948E+00   .4926276E-05   .3500003E+00
   .0000000E+00   .0000000E+00   .1575000E+00   .2999947E+00   .4678168E-05   .3500006E+00
   .0000000E+00   .0000000E+00   .1600000E+00   .2999947E+00   .4507538E-05   .3500008E+00
   .0000000E+00   .0000000E+00   .1625000E+00   .2999947E+00   .4386241E-05   .3500009E+00
   .0000000E+00   .0000000E+00   .1650000E+00   .2999947E+00   .4292167E-05   .3500010E+00
   .0000000E+00   .0000000E+00   .1675000E+00   .2999946E+00   .4207750E-05   .3500012E+00
   .0000000E+00   .0000000E+00   .1700000E+00   .2999946E+00   .4118855E-05   .3500013E+00
   .0000000E+00   .0000000E+00   .1725000E+00   .2999945E+00   .4013970E-05   .3500014E+00
   .0000000E+00   .0000000E+00   .1750000E+00   .2999945E+00   .3883591E-05   .3500016E+00
   .0000000E+00   .0000000E+00   .1775000E+00   .2999944E+00   .3719785E-05   .3500018E+00
   .0000000E+00   .0000000E+00   .1800000E+00   .2999944E+00   .3715595E-05   .3500019E+00
   .0000000E+00   .0000000E+00   .1825000E+00   .2999943E+00   .3952931E-05   .3500017E+00
   .0000000E+00   .0000000E+00   .1850000E+00   .2999942E+00   .4200664E-05   .3500016E+00
   .0000000E+00   .0000000E+00   .1875000E+00   .2999941E+00   .4454588E-05   .3500014E+00
   .0000000E+00   .0000000E+00   .1900000E+00   .2999940E+00   .4711023E-05   .3500013E+00
   .0000000E+00   .0000000E+00   .1925000E+00   .2999939E+00   .4966677E-05   .3500011E+00
   .0000000E+00   .0000000E+00   .1950000E+00   .2999938E+00   .5218553E-05   .3500009E+00
   .0000000E+00   .0000000E+00   .1975000E+00   .2999937E+00   .5463880E-05   .3500008E+00
   .0000000E+00   .0000000E+00   .2000000E+00   .2999939E+00   .5585984E-05   .3500006E+00
