title = "dataset perm3"
variables = "time","calcite","gypsum","porosity"
zone t = "phi_i, volume =    15", f=point
  0.0000000E+00  0.3000000E+00  0.1000000E-09  0.3500000E+00
  0.1000000E-05  0.3000000E+00  0.1000000E-09  0.3500000E+00
  0.2000000E-05  0.3000000E+00  0.1000000E-09  0.3500000E+00
  0.3000000E-05  0.3000000E+00  0.1000000E-09  0.3500000E+00
  0.4206002E-05  0.3000000E+00  0.1000000E-09  0.3500000E+00
  0.6224030E-05  0.3000000E+00  0.1000000E-09  0.3500000E+00
  0.9600836E-05  0.3000000E+00  0.1000000E-09  0.3500000E+00
  0.1525131E-04  0.3000000E+00  0.1000000E-09  0.3500000E+00
  0.2435919E-04  0.3000000E+00  0.1000000E-09  0.3500000E+00
  0.3646801E-04  0.3000000E+00  0.1000000E-09  0.3500000E+00
  0.5010759E-04  0.3000000E+00  0.1000000E-09  0.3500000E+00
  0.6309864E-04  0.3000000E+00  0.1000000E-09  0.3500000E+00
  0.7566048E-04  0.3000000E+00  0.1000000E-09  0.3500000E+00
  0.9136595E-04  0.3000000E+00  0.1000000E-09  0.3500000E+00
  0.1144386E-03  0.3000000E+00  0.1000000E-09  0.3500000E+00
  0.1420052E-03  0.3000000E+00  0.1000000E-09  0.3500000E+00
  0.1841138E-03  0.3000000E+00  0.1000000E-09  0.3500000E+00
  0.2484357E-03  0.3000000E+00  0.1000000E-09  0.3500000E+00
  0.3466891E-03  0.3000000E+00  0.1000000E-09  0.3500000E+00
  0.4461656E-03  0.3000000E+00  0.1000000E-09  0.3500000E+00
  0.5698468E-03  0.3000000E+00  0.1000000E-09  0.3500000E+00
  0.7378003E-03  0.3000000E+00  0.1000000E-09  0.3500000E+00
  0.9401379E-03  0.3000000E+00  0.1000000E-09  0.3500000E+00
  0.1195559E-02  0.3000000E+00  0.1000000E-09  0.3500000E+00
  0.1505329E-02  0.3000000E+00  0.1000000E-09  0.3500000E+00
  0.1866325E-02  0.3000000E+00  0.1000000E-09  0.3500000E+00
  0.2288983E-02  0.3000000E+00  0.1000000E-09  0.3500000E+00
  0.2780039E-02  0.3000000E+00  0.1000000E-09  0.3500000E+00
  0.3340895E-02  0.3000000E+00  0.1000000E-09  0.3500000E+00
  0.3976780E-02  0.3000001E+00  0.1000000E-09  0.3500000E+00
  0.4706290E-02  0.3000001E+00  0.1000000E-09  0.3499999E+00
  0.5519610E-02  0.2999999E+00  0.1000000E-09  0.3499999E+00
  0.6435288E-02  0.2999992E+00  0.1000000E-09  0.3500001E+00
  0.7457889E-02  0.2999981E+00  0.1000000E-09  0.3500008E+00
  0.8602645E-02  0.2999970E+00  0.1000000E-09  0.3500019E+00
  0.9867220E-02  0.2999959E+00  0.1000000E-09  0.3500030E+00
  0.1127293E-01  0.2999952E+00  0.1000000E-09  0.3500041E+00
  0.1282454E-01  0.2999947E+00  0.1000000E-09  0.3500048E+00
  0.1453792E-01  0.2999945E+00  0.1000000E-09  0.3500053E+00
  0.1642415E-01  0.2999943E+00  0.1000000E-09  0.3500055E+00
  0.1849843E-01  0.2999941E+00  0.1914677E-05  0.3500057E+00
  0.2077573E-01  0.2999938E+00  0.4877649E-05  0.3500040E+00
  0.2327175E-01  0.2999934E+00  0.8353118E-05  0.3500014E+00
  0.2600548E-01  0.2999929E+00  0.1219922E-04  0.3499983E+00
  0.2899467E-01  0.2999925E+00  0.1640071E-04  0.3499949E+00
  0.3226063E-01  0.2999920E+00  0.2098404E-04  0.3499911E+00
  0.3582561E-01  0.2999914E+00  0.2598400E-04  0.3499871E+00
  0.3971288E-01  0.2999908E+00  0.3143655E-04  0.3499826E+00
  0.4437464E-01  0.2999901E+00  0.3797888E-04  0.3499778E+00
  0.5083012E-01  0.2999891E+00  0.4704551E-04  0.3499720E+00
  0.6069103E-01  0.2999875E+00  0.6091000E-04  0.3499639E+00
  0.7575381E-01  0.2999851E+00  0.8212137E-04  0.3499516E+00
  0.1009587E+00  0.2999812E+00  0.1176993E-03  0.3499327E+00
  0.1431344E+00  0.2999745E+00  0.1774633E-03  0.3499011E+00
  0.2220381E+00  0.2999620E+00  0.2900002E-03  0.3498480E+00
  0.3220381E+00  0.2999459E+00  0.4343148E-03  0.3497480E+00
  0.4220381E+00  0.2999296E+00  0.5808053E-03  0.3496198E+00
  0.5220381E+00  0.2999130E+00  0.7295276E-03  0.3494896E+00
  0.6220381E+00  0.2998962E+00  0.8805090E-03  0.3493575E+00
  0.7220381E+00  0.2998791E+00  0.1033779E-02  0.3492233E+00
  0.8220381E+00  0.2998617E+00  0.1189373E-02  0.3490872E+00
  0.9220381E+00  0.2998441E+00  0.1347326E-02  0.3489489E+00
  0.1022038E+01  0.2998262E+00  0.1507683E-02  0.3488086E+00
  0.1122038E+01  0.2998081E+00  0.1670486E-02  0.3486661E+00
  0.1222038E+01  0.2997897E+00  0.1835786E-02  0.3485214E+00
  0.1322038E+01  0.2997710E+00  0.2003634E-02  0.3483745E+00
  0.1422038E+01  0.2997520E+00  0.2174085E-02  0.3482254E+00
  0.1522038E+01  0.2997327E+00  0.2347199E-02  0.3480739E+00
  0.1622038E+01  0.2997131E+00  0.2523036E-02  0.3479201E+00
  0.1722038E+01  0.2996932E+00  0.2701662E-02  0.3477639E+00
  0.1822038E+01  0.2996729E+00  0.2883051E-02  0.3476052E+00
  0.1922038E+01  0.2996533E+00  0.3059090E-02  0.3474440E+00
  0.2022038E+01  0.2996335E+00  0.3236433E-02  0.3472876E+00
  0.2122038E+01  0.2996135E+00  0.3415744E-02  0.3471300E+00
  0.2222038E+01  0.2995933E+00  0.3597123E-02  0.3469707E+00
  0.2322038E+01  0.2995728E+00  0.3780645E-02  0.3468096E+00
  0.2422038E+01  0.2995520E+00  0.3966385E-02  0.3466466E+00
  0.2522038E+01  0.2995311E+00  0.4154422E-02  0.3464816E+00
  0.2622038E+01  0.2995098E+00  0.4344840E-02  0.3463145E+00
  0.2722038E+01  0.2994882E+00  0.4537726E-02  0.3461454E+00
  0.2822038E+01  0.2994664E+00  0.4733171E-02  0.3459740E+00
  0.2922038E+01  0.2994443E+00  0.4931270E-02  0.3458004E+00
  0.3022038E+01  0.2994218E+00  0.5132121E-02  0.3456244E+00
  0.3122038E+01  0.2993991E+00  0.5335829E-02  0.3454460E+00
  0.3222038E+01  0.2993760E+00  0.5542500E-02  0.3452651E+00
  0.3322038E+01  0.2993525E+00  0.5752245E-02  0.3450815E+00
  0.3422038E+01  0.2993287E+00  0.5965177E-02  0.3448952E+00
  0.3522038E+01  0.2993045E+00  0.6181417E-02  0.3447061E+00
  0.3622038E+01  0.2992800E+00  0.6401086E-02  0.3445140E+00
  0.3722038E+01  0.2992550E+00  0.6624311E-02  0.3443190E+00
  0.3822038E+01  0.2992296E+00  0.6851222E-02  0.3441207E+00
  0.3922038E+01  0.2992038E+00  0.7081952E-02  0.3439192E+00
  0.4022038E+01  0.2991775E+00  0.7316639E-02  0.3437143E+00
  0.4122038E+01  0.2991508E+00  0.7555425E-02  0.3435059E+00
  0.4222038E+01  0.2991236E+00  0.7798455E-02  0.3432938E+00
  0.4322038E+01  0.2990958E+00  0.8045876E-02  0.3430780E+00
  0.4422038E+01  0.2990676E+00  0.8297840E-02  0.3428583E+00
  0.4522038E+01  0.2990389E+00  0.8554504E-02  0.3426345E+00
  0.4622038E+01  0.2990096E+00  0.8816024E-02  0.3424066E+00
  0.4722038E+01  0.2989797E+00  0.9082563E-02  0.3421744E+00
  0.4822038E+01  0.2989492E+00  0.9354286E-02  0.3419378E+00
  0.4922038E+01  0.2989181E+00  0.9631359E-02  0.3416965E+00
  0.5022038E+01  0.2988864E+00  0.9913955E-02  0.3414505E+00
  0.5122038E+01  0.2988541E+00  0.1020225E-01  0.3411996E+00
  0.5222038E+01  0.2988211E+00  0.1049641E-01  0.3409437E+00
  0.5322038E+01  0.2987874E+00  0.1079662E-01  0.3406825E+00
  0.5422038E+01  0.2987529E+00  0.1110306E-01  0.3404160E+00
  0.5522038E+01  0.2987178E+00  0.1141592E-01  0.3401440E+00
  0.5622038E+01  0.2986819E+00  0.1173538E-01  0.3398663E+00
  0.5722038E+01  0.2986452E+00  0.1206163E-01  0.3395827E+00
  0.5822038E+01  0.2986091E+00  0.1238188E-01  0.3392931E+00
  0.5922038E+01  0.2985752E+00  0.1268134E-01  0.3390090E+00
  0.6022038E+01  0.2985409E+00  0.1298454E-01  0.3387434E+00
  0.6122038E+01  0.2985058E+00  0.1329368E-01  0.3384746E+00
  0.6222038E+01  0.2984700E+00  0.1360910E-01  0.3382005E+00
  0.6322038E+01  0.2984334E+00  0.1393105E-01  0.3379209E+00
  0.6422038E+01  0.2983960E+00  0.1425976E-01  0.3376355E+00
  0.6522038E+01  0.2983578E+00  0.1459550E-01  0.3373442E+00
  0.6622038E+01  0.2983187E+00  0.1493851E-01  0.3370467E+00
  0.6722038E+01  0.2982788E+00  0.1528907E-01  0.3367428E+00
  0.6822038E+01  0.2982379E+00  0.1564743E-01  0.3364322E+00
  0.6922038E+01  0.2981960E+00  0.1601386E-01  0.3361147E+00
  0.7022038E+01  0.2981531E+00  0.1638864E-01  0.3357902E+00
  0.7122038E+01  0.2981092E+00  0.1677204E-01  0.3354582E+00
  0.7222038E+01  0.2980643E+00  0.1716434E-01  0.3351187E+00
  0.7322038E+01  0.2980182E+00  0.1756582E-01  0.3347714E+00
  0.7422038E+01  0.2979710E+00  0.1797676E-01  0.3344160E+00
  0.7522038E+01  0.2979226E+00  0.1839746E-01  0.3340522E+00
  0.7622038E+01  0.2978730E+00  0.1882820E-01  0.3336799E+00
  0.7722038E+01  0.2978222E+00  0.1926927E-01  0.3332988E+00
  0.7822038E+01  0.2977701E+00  0.1972097E-01  0.3329085E+00
  0.7922038E+01  0.2977166E+00  0.2018358E-01  0.3325090E+00
  0.8022038E+01  0.2976617E+00  0.2065742E-01  0.3320998E+00
  0.8122038E+01  0.2976055E+00  0.2114276E-01  0.3316809E+00
  0.8222038E+01  0.2975477E+00  0.2163992E-01  0.3312518E+00
  0.8322038E+01  0.2974885E+00  0.2214919E-01  0.3308123E+00
  0.8422038E+01  0.2974278E+00  0.2267087E-01  0.3303623E+00
  0.8522038E+01  0.2973654E+00  0.2320526E-01  0.3299014E+00
  0.8622038E+01  0.2973014E+00  0.2375267E-01  0.3294293E+00
  0.8722038E+01  0.2972358E+00  0.2431338E-01  0.3289459E+00
  0.8822038E+01  0.2971762E+00  0.2481243E-01  0.3284508E+00
  0.8922038E+01  0.2971160E+00  0.2531425E-01  0.3280114E+00
  0.9022038E+01  0.2970540E+00  0.2582835E-01  0.3275698E+00
  0.9122038E+01  0.2969903E+00  0.2635566E-01  0.3271176E+00
  0.9222038E+01  0.2969248E+00  0.2689663E-01  0.3266540E+00
  0.9322038E+01  0.2968573E+00  0.2745165E-01  0.3261786E+00
  0.9422038E+01  0.2967878E+00  0.2802115E-01  0.3256911E+00
  0.9522038E+01  0.2967162E+00  0.2860555E-01  0.3251911E+00
  0.9622038E+01  0.2966425E+00  0.2920524E-01  0.3246783E+00
  0.9722038E+01  0.2965666E+00  0.2982065E-01  0.3241523E+00
  0.9822038E+01  0.2964884E+00  0.3045220E-01  0.3236128E+00
  0.9922038E+01  0.2964078E+00  0.3110029E-01  0.3230594E+00
  0.1000000E+02  0.2963431E+00  0.3161852E-01  0.3224919E+00
  0.1010000E+02  0.2962580E+00  0.3229732E-01  0.3220384E+00
  0.1020000E+02  0.2961704E+00  0.3299356E-01  0.3214446E+00
  0.1030000E+02  0.2960802E+00  0.3370787E-01  0.3208360E+00
  0.1040000E+02  0.2959871E+00  0.3444069E-01  0.3202120E+00
  0.1050000E+02  0.2958912E+00  0.3519241E-01  0.3195722E+00
  0.1060000E+02  0.2957923E+00  0.3596343E-01  0.3189164E+00
  0.1070000E+02  0.2956904E+00  0.3675414E-01  0.3182443E+00
  0.1080000E+02  0.2955853E+00  0.3756495E-01  0.3175555E+00
  0.1090000E+02  0.2954769E+00  0.3839623E-01  0.3168498E+00
  0.1100000E+02  0.2953653E+00  0.3924838E-01  0.3161268E+00
  0.1110000E+02  0.2952501E+00  0.4012176E-01  0.3153864E+00
  0.1120000E+02  0.2951330E+00  0.4100037E-01  0.3146281E+00
  0.1130000E+02  0.2950234E+00  0.4178635E-01  0.3138666E+00
  0.1140000E+02  0.2949105E+00  0.4258677E-01  0.3131903E+00
  0.1150000E+02  0.2947935E+00  0.4340888E-01  0.3125028E+00
  0.1160000E+02  0.2946722E+00  0.4425349E-01  0.3117976E+00
  0.1170000E+02  0.2945466E+00  0.4512113E-01  0.3110743E+00
  0.1180000E+02  0.2944163E+00  0.4601229E-01  0.3103323E+00
  0.1190000E+02  0.2942812E+00  0.4692749E-01  0.3095714E+00
  0.1200000E+02  0.2941412E+00  0.4786722E-01  0.3087913E+00
  0.1210000E+02  0.2939960E+00  0.4883196E-01  0.3079916E+00
  0.1220000E+02  0.2938454E+00  0.4982218E-01  0.3071721E+00
  0.1230000E+02  0.2936893E+00  0.5083836E-01  0.3063324E+00
  0.1240000E+02  0.2935274E+00  0.5188096E-01  0.3054724E+00
  0.1250000E+02  0.2933595E+00  0.5295041E-01  0.3045917E+00
  0.1260000E+02  0.2931853E+00  0.5404715E-01  0.3036901E+00
  0.1270000E+02  0.2930048E+00  0.5517161E-01  0.3027675E+00
  0.1280000E+02  0.2928175E+00  0.5632420E-01  0.3018236E+00
  0.1290000E+02  0.2926233E+00  0.5750531E-01  0.3008583E+00
  0.1300000E+02  0.2924219E+00  0.5871532E-01  0.2998714E+00
  0.1310000E+02  0.2922131E+00  0.5995460E-01  0.2988628E+00
  0.1320000E+02  0.2919965E+00  0.6122350E-01  0.2978323E+00
  0.1330000E+02  0.2917719E+00  0.6252236E-01  0.2967800E+00
  0.1340000E+02  0.2915391E+00  0.6385150E-01  0.2957057E+00
  0.1350000E+02  0.2913117E+00  0.6504640E-01  0.2946094E+00
  0.1360000E+02  0.2910777E+00  0.6623522E-01  0.2936419E+00
  0.1370000E+02  0.2908336E+00  0.6745344E-01  0.2926871E+00
  0.1380000E+02  0.2905790E+00  0.6870325E-01  0.2917129E+00
  0.1390000E+02  0.2903133E+00  0.6998513E-01  0.2907178E+00
  0.1400000E+02  0.2900360E+00  0.7129948E-01  0.2897016E+00
  0.1410000E+02  0.2897468E+00  0.7264669E-01  0.2886645E+00
  0.1420000E+02  0.2894451E+00  0.7402709E-01  0.2876065E+00
  0.1430000E+02  0.2891305E+00  0.7544101E-01  0.2865278E+00
  0.1440000E+02  0.2888025E+00  0.7688875E-01  0.2854285E+00
  0.1450000E+02  0.2884605E+00  0.7837057E-01  0.2843088E+00
  0.1460000E+02  0.2881040E+00  0.7988669E-01  0.2831690E+00
  0.1470000E+02  0.2877326E+00  0.8143733E-01  0.2820093E+00
  0.1480000E+02  0.2873457E+00  0.8302264E-01  0.2808301E+00
  0.1490000E+02  0.2869427E+00  0.8464280E-01  0.2796317E+00
  0.1500000E+02  0.2865232E+00  0.8629779E-01  0.2784145E+00
  0.1510000E+02  0.2860866E+00  0.8798750E-01  0.2771790E+00
  0.1520000E+02  0.2856324E+00  0.8971208E-01  0.2759259E+00
  0.1530000E+02  0.2851601E+00  0.9147154E-01  0.2746555E+00
  0.1540000E+02  0.2846690E+00  0.9326587E-01  0.2733684E+00
  0.1550000E+02  0.2841586E+00  0.9509520E-01  0.2720651E+00
  0.1560000E+02  0.2836354E+00  0.9683102E-01  0.2707462E+00
  0.1570000E+02  0.2830983E+00  0.9845259E-01  0.2695336E+00
  0.1580000E+02  0.2825371E+00  0.1001033E+00  0.2684491E+00
  0.1590000E+02  0.2819504E+00  0.1017897E+00  0.2673596E+00
  0.1600000E+02  0.2813371E+00  0.1035123E+00  0.2662599E+00
  0.1610000E+02  0.2806963E+00  0.1052710E+00  0.2651507E+00
  0.1620000E+02  0.2800272E+00  0.1070658E+00  0.2640327E+00
  0.1630000E+02  0.2793288E+00  0.1088966E+00  0.2629070E+00
  0.1640000E+02  0.2786000E+00  0.1107637E+00  0.2617746E+00
  0.1650000E+02  0.2778399E+00  0.1126669E+00  0.2606363E+00
  0.1660000E+02  0.2770474E+00  0.1146062E+00  0.2594932E+00
  0.1670000E+02  0.2762214E+00  0.1165817E+00  0.2583464E+00
  0.1680000E+02  0.2753610E+00  0.1185933E+00  0.2571968E+00
  0.1690000E+02  0.2744650E+00  0.1206408E+00  0.2560457E+00
  0.1700000E+02  0.2735324E+00  0.1227241E+00  0.2548942E+00
  0.1710000E+02  0.2725622E+00  0.1248430E+00  0.2537435E+00
  0.1720000E+02  0.2715535E+00  0.1269972E+00  0.2525948E+00
  0.1730000E+02  0.2705051E+00  0.1291865E+00  0.2514493E+00
  0.1740000E+02  0.2694161E+00  0.1314105E+00  0.2503084E+00
  0.1750000E+02  0.2682856E+00  0.1336690E+00  0.2491734E+00
  0.1760000E+02  0.2671127E+00  0.1359613E+00  0.2480454E+00
  0.1770000E+02  0.2658968E+00  0.1382869E+00  0.2469260E+00
  0.1780000E+02  0.2646364E+00  0.1402726E+00  0.2458163E+00
  0.1790000E+02  0.2633241E+00  0.1422634E+00  0.2450910E+00
  0.1800000E+02  0.2619583E+00  0.1442839E+00  0.2444125E+00
  0.1810000E+02  0.2605380E+00  0.1463340E+00  0.2437578E+00
  0.1820000E+02  0.2590621E+00  0.1484130E+00  0.2431281E+00
  0.1830000E+02  0.2575299E+00  0.1505203E+00  0.2425249E+00
  0.1840000E+02  0.2559404E+00  0.1526549E+00  0.2419498E+00
  0.1850000E+02  0.2542931E+00  0.1548161E+00  0.2414046E+00
  0.1860000E+02  0.2525873E+00  0.1570028E+00  0.2408908E+00
  0.1870000E+02  0.2508225E+00  0.1592141E+00  0.2404099E+00
  0.1880000E+02  0.2489985E+00  0.1614489E+00  0.2399634E+00
  0.1890000E+02  0.2471150E+00  0.1637061E+00  0.2395526E+00
  0.1900000E+02  0.2451718E+00  0.1659846E+00  0.2391789E+00
  0.1910000E+02  0.2431692E+00  0.1682831E+00  0.2388436E+00
  0.1920000E+02  0.2411072E+00  0.1706004E+00  0.2385477E+00
  0.1930000E+02  0.2389866E+00  0.1729351E+00  0.2382924E+00
  0.1940000E+02  0.2368078E+00  0.1752859E+00  0.2380783E+00
  0.1950000E+02  0.2345715E+00  0.1776514E+00  0.2379063E+00
  0.1960000E+02  0.2322782E+00  0.1800304E+00  0.2377771E+00
  0.1970000E+02  0.2299289E+00  0.1824215E+00  0.2376914E+00
  0.1980000E+02  0.2275247E+00  0.1848233E+00  0.2376495E+00
  0.1990000E+02  0.2250618E+00  0.1871478E+00  0.2376520E+00
  0.2000000E+02  0.2225176E+00  0.1889926E+00  0.2377904E+00
  0.2010000E+02  0.2199126E+00  0.1908208E+00  0.2384898E+00
  0.2020000E+02  0.2172495E+00  0.1926446E+00  0.2392666E+00
  0.2030000E+02  0.2145307E+00  0.1944622E+00  0.2401059E+00
  0.2040000E+02  0.2117584E+00  0.1962717E+00  0.2410071E+00
  0.2050000E+02  0.2089354E+00  0.1980712E+00  0.2419699E+00
  0.2060000E+02  0.2060642E+00  0.1998587E+00  0.2429934E+00
  0.2070000E+02  0.2031479E+00  0.2016324E+00  0.2440770E+00
  0.2080000E+02  0.2001893E+00  0.2033903E+00  0.2452197E+00
  0.2090000E+02  0.1971916E+00  0.2051306E+00  0.2464204E+00
  0.2100000E+02  0.1941582E+00  0.2068515E+00  0.2476778E+00
  0.2110000E+02  0.1910925E+00  0.2085511E+00  0.2489903E+00
  0.2120000E+02  0.1879977E+00  0.2102280E+00  0.2503564E+00
  0.2130000E+02  0.1848769E+00  0.2118803E+00  0.2517744E+00
  0.2140000E+02  0.1817336E+00  0.2135066E+00  0.2532427E+00
  0.2150000E+02  0.1785710E+00  0.2151053E+00  0.2547598E+00
  0.2160000E+02  0.1753923E+00  0.2166749E+00  0.2563237E+00
  0.2170000E+02  0.1722009E+00  0.2182139E+00  0.2579328E+00
  0.2180000E+02  0.1690000E+00  0.2197209E+00  0.2595852E+00
  0.2190000E+02  0.1657928E+00  0.2211947E+00  0.2612791E+00
  0.2200000E+02  0.1625825E+00  0.2226340E+00  0.2630125E+00
  0.2210000E+02  0.1593711E+00  0.2240097E+00  0.2647835E+00
  0.2220000E+02  0.1561331E+00  0.2244919E+00  0.2666192E+00
  0.2230000E+02  0.1528979E+00  0.2248973E+00  0.2693750E+00
  0.2240000E+02  0.1496697E+00  0.2252455E+00  0.2722049E+00
  0.2250000E+02  0.1464520E+00  0.2255361E+00  0.2750848E+00
  0.2260000E+02  0.1432478E+00  0.2257683E+00  0.2780119E+00
  0.2270000E+02  0.1400600E+00  0.2259419E+00  0.2809839E+00
  0.2280000E+02  0.1368917E+00  0.2260565E+00  0.2839981E+00
  0.2290000E+02  0.1337451E+00  0.2261119E+00  0.2870518E+00
  0.2300000E+02  0.1306229E+00  0.2261080E+00  0.2901429E+00
  0.2310000E+02  0.1275271E+00  0.2260446E+00  0.2932691E+00
  0.2320000E+02  0.1244598E+00  0.2259217E+00  0.2964283E+00
  0.2330000E+02  0.1214230E+00  0.2257394E+00  0.2996185E+00
  0.2340000E+02  0.1184184E+00  0.2254979E+00  0.3028375E+00
  0.2350000E+02  0.1154476E+00  0.2251975E+00  0.3060836E+00
  0.2360000E+02  0.1125122E+00  0.2248384E+00  0.3093549E+00
  0.2370000E+02  0.1096133E+00  0.2244210E+00  0.3126495E+00
  0.2380000E+02  0.1067523E+00  0.2239459E+00  0.3159657E+00
  0.2390000E+02  0.1039303E+00  0.2234136E+00  0.3193018E+00
  0.2400000E+02  0.1011482E+00  0.2228249E+00  0.3226561E+00
  0.2410000E+02  0.9840688E-01  0.2221803E+00  0.3260269E+00
  0.2420000E+02  0.9570710E-01  0.2214808E+00  0.3294128E+00
  0.2430000E+02  0.9304952E-01  0.2207272E+00  0.3328121E+00
  0.2440000E+02  0.9043149E-01  0.2192003E+00  0.3362233E+00
  0.2450000E+02  0.8785419E-01  0.2169447E+00  0.3403682E+00
  0.2460000E+02  0.8532080E-01  0.2146006E+00  0.3452011E+00
  0.2470000E+02  0.8283171E-01  0.2121833E+00  0.3500786E+00
  0.2480000E+02  0.8038721E-01  0.2096943E+00  0.3549850E+00
  0.2490000E+02  0.7798748E-01  0.2071353E+00  0.3599185E+00
  0.2500000E+02  0.7563263E-01  0.2045077E+00  0.3648772E+00
  0.2510000E+02  0.7332273E-01  0.2018130E+00  0.3698597E+00
  0.2520000E+02  0.7105777E-01  0.1990528E+00  0.3748642E+00
  0.2530000E+02  0.6883769E-01  0.1962286E+00  0.3798894E+00
  0.2540000E+02  0.6666238E-01  0.1933418E+00  0.3849338E+00
  0.2550000E+02  0.6453169E-01  0.1903941E+00  0.3899958E+00
  0.2560000E+02  0.6244543E-01  0.1873870E+00  0.3950742E+00
  0.2570000E+02  0.6040337E-01  0.1843221E+00  0.4001676E+00
  0.2580000E+02  0.5840525E-01  0.1812011E+00  0.4052745E+00
  0.2590000E+02  0.5645078E-01  0.1780253E+00  0.4103937E+00
  0.2600000E+02  0.5453964E-01  0.1747970E+00  0.4155239E+00
  0.2610000E+02  0.5267149E-01  0.1715178E+00  0.4206633E+00
  0.2620000E+02  0.5084596E-01  0.1681888E+00  0.4258108E+00
  0.2630000E+02  0.4906266E-01  0.1648113E+00  0.4309653E+00
  0.2640000E+02  0.4732119E-01  0.1613864E+00  0.4361260E+00
  0.2650000E+02  0.4562110E-01  0.1579151E+00  0.4412924E+00
  0.2660000E+02  0.4396196E-01  0.1543982E+00  0.4464638E+00
  0.2670000E+02  0.4234327E-01  0.1498656E+00  0.4516399E+00
  0.2680000E+02  0.4076456E-01  0.1441058E+00  0.4577912E+00
  0.2690000E+02  0.3922534E-01  0.1382560E+00  0.4651296E+00
  0.2700000E+02  0.3772511E-01  0.1323387E+00  0.4725186E+00
  0.2710000E+02  0.3626337E-01  0.1263562E+00  0.4799362E+00
  0.2720000E+02  0.3483965E-01  0.1203106E+00  0.4873804E+00
  0.2730000E+02  0.3345343E-01  0.1142040E+00  0.4948498E+00
  0.2740000E+02  0.3210424E-01  0.1080385E+00  0.5023426E+00
  0.2750000E+02  0.3079157E-01  0.1018161E+00  0.5098572E+00
  0.2760000E+02  0.2951493E-01  0.9553958E-01  0.5173924E+00
  0.2770000E+02  0.2827382E-01  0.8921111E-01  0.5249455E+00
  0.2780000E+02  0.2706776E-01  0.8283236E-01  0.5325151E+00
  0.2790000E+02  0.2589624E-01  0.7640501E-01  0.5400999E+00
  0.2800000E+02  0.2475877E-01  0.6993074E-01  0.5476988E+00
  0.2810000E+02  0.2365486E-01  0.6341123E-01  0.5553105E+00
  0.2820000E+02  0.2258401E-01  0.5684814E-01  0.5629339E+00
  0.2830000E+02  0.2154573E-01  0.5024314E-01  0.5705679E+00
  0.2840000E+02  0.2053952E-01  0.4359788E-01  0.5782111E+00
  0.2850000E+02  0.1956488E-01  0.3691404E-01  0.5858626E+00
  0.2860000E+02  0.1862133E-01  0.3019329E-01  0.5935211E+00
  0.2870000E+02  0.1770837E-01  0.2343728E-01  0.6011854E+00
  0.2880000E+02  0.1682549E-01  0.1664770E-01  0.6088544E+00
  0.2890000E+02  0.1597221E-01  0.9826225E-02  0.6165268E+00
  0.2900000E+02  0.1514802E-01  0.2974552E-02  0.6242016E+00
  0.2910000E+02  0.1435244E-01  0.1000000E-09  0.6318774E+00
  0.2919608E+02  0.1361507E-01  0.1000000E-09  0.6356476E+00
  0.2929608E+02  0.1287411E-01  0.1000000E-09  0.6363849E+00
  0.2939608E+02  0.1216029E-01  0.1000000E-09  0.6371259E+00
  0.2949608E+02  0.1147309E-01  0.1000000E-09  0.6378397E+00
  0.2959608E+02  0.1081204E-01  0.1000000E-09  0.6385269E+00
  0.2969608E+02  0.1017664E-01  0.1000000E-09  0.6391880E+00
  0.2979608E+02  0.9566372E-02  0.1000000E-09  0.6398234E+00
  0.2989608E+02  0.8980756E-02  0.1000000E-09  0.6404336E+00
  0.2999608E+02  0.8419290E-02  0.1000000E-09  0.6410192E+00
  0.3009608E+02  0.7881477E-02  0.1000000E-09  0.6415807E+00
  0.3019608E+02  0.7366818E-02  0.1000000E-09  0.6421185E+00
  0.3029608E+02  0.6874815E-02  0.1000000E-09  0.6426332E+00
  0.3039608E+02  0.6404969E-02  0.1000000E-09  0.6431252E+00
  0.3049608E+02  0.5956782E-02  0.1000000E-09  0.6435950E+00
  0.3059608E+02  0.5529755E-02  0.1000000E-09  0.6440432E+00
  0.3069608E+02  0.5123388E-02  0.1000000E-09  0.6444702E+00
  0.3079608E+02  0.4737181E-02  0.1000000E-09  0.6448766E+00
  0.3089608E+02  0.4370636E-02  0.1000000E-09  0.6452628E+00
  0.3099608E+02  0.4023251E-02  0.1000000E-09  0.6456294E+00
  0.3109608E+02  0.3694526E-02  0.1000000E-09  0.6459767E+00
  0.3119608E+02  0.3383960E-02  0.1000000E-09  0.6463055E+00
  0.3129608E+02  0.3091052E-02  0.1000000E-09  0.6466160E+00
  0.3139608E+02  0.2815300E-02  0.1000000E-09  0.6469089E+00
  0.3149608E+02  0.2556202E-02  0.1000000E-09  0.6471847E+00
  0.3159608E+02  0.2313255E-02  0.1000000E-09  0.6474438E+00
  0.3169215E+02  0.2094873E-02  0.1000000E-09  0.6476867E+00
  0.3179215E+02  0.1882115E-02  0.1000000E-09  0.6479051E+00
  0.3189215E+02  0.1684018E-02  0.1000000E-09  0.6481179E+00
  0.3199215E+02  0.1500077E-02  0.1000000E-09  0.6483160E+00
  0.3209215E+02  0.1329786E-02  0.1000000E-09  0.6484999E+00
  0.3219215E+02  0.1172640E-02  0.1000000E-09  0.6486702E+00
  0.3229215E+02  0.1028133E-02  0.1000000E-09  0.6488274E+00
  0.3239215E+02  0.8957553E-03  0.1000000E-09  0.6489719E+00
  0.3249215E+02  0.7749996E-03  0.1000000E-09  0.6491042E+00
  0.3259215E+02  0.6653563E-03  0.1000000E-09  0.6492250E+00
  0.3269215E+02  0.5663147E-03  0.1000000E-09  0.6493346E+00
  0.3279215E+02  0.4773633E-03  0.1000000E-09  0.6494337E+00
  0.3289215E+02  0.3979888E-03  0.1000000E-09  0.6495226E+00
  0.3299215E+02  0.3276770E-03  0.1000000E-09  0.6496020E+00
  0.3309215E+02  0.2659116E-03  0.1000000E-09  0.6496723E+00
  0.3319215E+02  0.2121747E-03  0.1000000E-09  0.6497341E+00
  0.3329215E+02  0.1659461E-03  0.1000000E-09  0.6497878E+00
  0.3339215E+02  0.1267034E-03  0.1000000E-09  0.6498341E+00
  0.3349215E+02  0.9392104E-04  0.1000000E-09  0.6498733E+00
  0.3359215E+02  0.6707029E-04  0.1000000E-09  0.6499061E+00
  0.3369215E+02  0.4561828E-04  0.1000000E-09  0.6499329E+00
  0.3379215E+02  0.2902723E-04  0.1000000E-09  0.6499544E+00
  0.3389215E+02  0.1675326E-04  0.1000000E-09  0.6499710E+00
  0.3399215E+02  0.8244870E-05  0.1000000E-09  0.6499832E+00
  0.3409215E+02  0.2941274E-05  0.1000000E-09  0.6499918E+00
  0.3419215E+02  0.2735664E-06  0.1000000E-09  0.6499971E+00
  0.3429215E+02  0.1000000E-09  0.1000000E-09  0.6499997E+00
  0.3438474E+02  0.1000000E-09  0.1000000E-09  0.6500000E+00
  0.3447710E+02  0.1000000E-09  0.1000000E-09  0.6500000E+00
  0.3457710E+02  0.1000000E-09  0.1000000E-09  0.6500000E+00
  0.3467710E+02  0.1000000E-09  0.1000000E-09  0.6500000E+00
  0.3477710E+02  0.1000000E-09  0.1000000E-09  0.6500000E+00
  0.3487710E+02  0.1000000E-09  0.1000000E-09  0.6500000E+00
  0.3497710E+02  0.1000000E-09  0.1000000E-09  0.6500000E+00
  0.3507710E+02  0.1000000E-09  0.1000000E-09  0.6500000E+00
  0.3517710E+02  0.1000000E-09  0.1000000E-09  0.6500000E+00
  0.3527710E+02  0.1000000E-09  0.1000000E-09  0.6500000E+00
  0.3537710E+02  0.1000000E-09  0.1000000E-09  0.6500000E+00
  0.3547710E+02  0.1000000E-09  0.1000000E-09  0.6500000E+00
  0.3557710E+02  0.1000000E-09  0.1000000E-09  0.6500000E+00
  0.3567710E+02  0.1000000E-09  0.1000000E-09  0.6500000E+00
  0.3577710E+02  0.1000000E-09  0.1000000E-09  0.6500000E+00
  0.3587710E+02  0.1000000E-09  0.1000000E-09  0.6500000E+00
  0.3597710E+02  0.1000000E-09  0.1000000E-09  0.6500000E+00
  0.3607710E+02  0.1000000E-09  0.1000000E-09  0.6500000E+00
  0.3617710E+02  0.1000000E-09  0.1000000E-09  0.6500000E+00
  0.3627710E+02  0.1000000E-09  0.1000000E-09  0.6500000E+00
  0.3637710E+02  0.1000000E-09  0.1000000E-09  0.6500000E+00
  0.3647710E+02  0.1000000E-09  0.1000000E-09  0.6500000E+00
  0.3657710E+02  0.1000000E-09  0.1000000E-09  0.6500000E+00
  0.3667710E+02  0.1000000E-09  0.1000000E-09  0.6500000E+00
  0.3677710E+02  0.1000000E-09  0.1000000E-09  0.6500000E+00
  0.3687710E+02  0.1000000E-09  0.1000000E-09  0.6500000E+00
  0.3697710E+02  0.1000000E-09  0.1000000E-09  0.6500000E+00
  0.3707710E+02  0.1000000E-09  0.1000000E-09  0.6500000E+00
  0.3717710E+02  0.1000000E-09  0.1000000E-09  0.6500000E+00
  0.3727710E+02  0.1000000E-09  0.1000000E-09  0.6500000E+00
  0.3736111E+02  0.1000000E-09  0.1000000E-09  0.6500000E+00
  0.3743642E+02  0.1000000E-09  0.1000000E-09  0.6500000E+00
  0.3753642E+02  0.1000000E-09  0.1000000E-09  0.6500000E+00
  0.3763642E+02  0.1000000E-09  0.1000000E-09  0.6500000E+00
  0.3773642E+02  0.1000000E-09  0.1000000E-09  0.6500000E+00
  0.3783642E+02  0.1000000E-09  0.1000000E-09  0.6500000E+00
  0.3793642E+02  0.1000000E-09  0.1000000E-09  0.6500000E+00
  0.3803642E+02  0.1000000E-09  0.1000000E-09  0.6500000E+00
  0.3813642E+02  0.1000000E-09  0.1000000E-09  0.6500000E+00
  0.3823642E+02  0.1000000E-09  0.1000000E-09  0.6500000E+00
  0.3833642E+02  0.1000000E-09  0.1000000E-09  0.6500000E+00
  0.3843642E+02  0.1000000E-09  0.1000000E-09  0.6500000E+00
  0.3853642E+02  0.1000000E-09  0.1000000E-09  0.6500000E+00
  0.3863642E+02  0.1000000E-09  0.1000000E-09  0.6500000E+00
  0.3873642E+02  0.1000000E-09  0.1000000E-09  0.6500000E+00
  0.3883642E+02  0.1000000E-09  0.1000000E-09  0.6500000E+00
  0.3893642E+02  0.1000000E-09  0.1000000E-09  0.6500000E+00
  0.3903642E+02  0.1000000E-09  0.1000000E-09  0.6500000E+00
  0.3913642E+02  0.1000000E-09  0.1000000E-09  0.6500000E+00
  0.3923642E+02  0.1000000E-09  0.1000000E-09  0.6500000E+00
  0.3933642E+02  0.1000000E-09  0.1000000E-09  0.6500000E+00
  0.3943642E+02  0.1000000E-09  0.1000000E-09  0.6500000E+00
  0.3953642E+02  0.1000000E-09  0.1000000E-09  0.6500000E+00
  0.3963642E+02  0.1000000E-09  0.1000000E-09  0.6500000E+00
  0.3973642E+02  0.1000000E-09  0.1000000E-09  0.6500000E+00
  0.3983642E+02  0.1000000E-09  0.1000000E-09  0.6500000E+00
  0.3993642E+02  0.1000000E-09  0.1000000E-09  0.6500000E+00
  0.4003642E+02  0.1000000E-09  0.1000000E-09  0.6500000E+00
  0.4013642E+02  0.1000000E-09  0.1000000E-09  0.6500000E+00
  0.4023642E+02  0.1000000E-09  0.1000000E-09  0.6500000E+00
  0.4033642E+02  0.1000000E-09  0.1000000E-09  0.6500000E+00
  0.4043642E+02  0.1000000E-09  0.1000000E-09  0.6500000E+00
  0.4053642E+02  0.1000000E-09  0.1000000E-09  0.6500000E+00
  0.4063642E+02  0.1000000E-09  0.1000000E-09  0.6500000E+00
  0.4073642E+02  0.1000000E-09  0.1000000E-09  0.6500000E+00
  0.4083642E+02  0.1000000E-09  0.1000000E-09  0.6500000E+00
  0.4091589E+02  0.1000000E-09  0.1000000E-09  0.6500000E+00
  0.4095738E+02  0.1000000E-09  0.1000000E-09  0.6500000E+00
  0.4102680E+02  0.1000000E-09  0.1000000E-09  0.6500000E+00
  0.4112680E+02  0.1000000E-09  0.1000000E-09  0.6500000E+00
  0.4122680E+02  0.1000000E-09  0.1000000E-09  0.6500000E+00
  0.4132680E+02  0.1000000E-09  0.1000000E-09  0.6500000E+00
  0.4142680E+02  0.1000000E-09  0.1000000E-09  0.6500000E+00
  0.4152680E+02  0.1000000E-09  0.1000000E-09  0.6500000E+00
  0.4162680E+02  0.1000000E-09  0.1000000E-09  0.6500000E+00
  0.4172680E+02  0.1000000E-09  0.1000000E-09  0.6500000E+00
  0.4182680E+02  0.1000000E-09  0.1000000E-09  0.6500000E+00
  0.4192680E+02  0.1000000E-09  0.1000000E-09  0.6500000E+00
  0.4202680E+02  0.1000000E-09  0.1000000E-09  0.6500000E+00
  0.4212680E+02  0.1000000E-09  0.1000000E-09  0.6500000E+00
  0.4222680E+02  0.1000000E-09  0.1000000E-09  0.6500000E+00
  0.4232680E+02  0.1000000E-09  0.1000000E-09  0.6500000E+00
  0.4242680E+02  0.1000000E-09  0.1000000E-09  0.6500000E+00
  0.4252680E+02  0.1000000E-09  0.1000000E-09  0.6500000E+00
  0.4262680E+02  0.1000000E-09  0.1000000E-09  0.6500000E+00