title = "dataset perm3"
variables = "x", "y", "z", "h_w", "p_w", "s_w", "theta_a"
zone t = "Flow variables, solution time =  2.000E+01 years       " i =   81, j =    1, k =    1,  f=point
   .0000000E+00   .0000000E+00   .0000000E+00   .7000000E-03   .7000000E-03   .1000000E+01   .6500000E+00
   .0000000E+00   .0000000E+00   .2500000E-02   .6996376E-03  -.1800362E-02   .1000000E+01   .6500000E+00
   .0000000E+00   .0000000E+00   .5000000E-02   .6992752E-03  -.4300725E-02   .1000000E+01   .6500000E+00
   .0000000E+00   .0000000E+00   .7500000E-02   .6989128E-03  -.6801087E-02   .1000000E+01   .6500000E+00
   .0000000E+00   .0000000E+00   .1000000E-01   .6985504E-03  -.9301450E-02   .1000000E+01   .6500000E+00
   .0000000E+00   .0000000E+00   .1250000E-01   .6981879E-03  -.1180181E-01   .1000000E+01   .6500000E+00
   .0000000E+00   .0000000E+00   .1500000E-01   .6978252E-03  -.1430217E-01   .1000000E+01   .6498218E+00
   .0000000E+00   .0000000E+00   .1750000E-01   .6974579E-03  -.1680254E-01   .1000000E+01   .6476172E+00
   .0000000E+00   .0000000E+00   .2000000E-01   .6970737E-03  -.1930293E-01   .1000000E+01   .6411440E+00
   .0000000E+00   .0000000E+00   .2250000E-01   .6966493E-03  -.2180335E-01   .1000000E+01   .6284592E+00
   .0000000E+00   .0000000E+00   .2500000E-01   .6961441E-03  -.2430386E-01   .1000000E+01   .6074377E+00
   .0000000E+00   .0000000E+00   .2750000E-01   .6945448E-03  -.2680546E-01   .1000000E+01   .4520823E+00
   .0000000E+00   .0000000E+00   .3000000E-01   .6888802E-03  -.2931112E-01   .1000000E+01   .3430116E+00
   .0000000E+00   .0000000E+00   .3250000E-01   .6739051E-03  -.3182609E-01   .1000000E+01   .2724654E+00
   .0000000E+00   .0000000E+00   .3500000E-01   .6457221E-03  -.3435428E-01   .1000000E+01   .2377904E+00
   .0000000E+00   .0000000E+00   .3750000E-01   .6094804E-03  -.3689052E-01   .1000000E+01   .2337011E+00
   .0000000E+00   .0000000E+00   .4000000E-01   .5755188E-03  -.3942448E-01   .1000000E+01   .2470564E+00
   .0000000E+00   .0000000E+00   .4250000E-01   .5485625E-03  -.4195144E-01   .1000000E+01   .2656617E+00
   .0000000E+00   .0000000E+00   .4500000E-01   .5277084E-03  -.4447229E-01   .1000000E+01   .2833550E+00
   .0000000E+00   .0000000E+00   .4750000E-01   .5109908E-03  -.4698901E-01   .1000000E+01   .2981816E+00
   .0000000E+00   .0000000E+00   .5000000E-01   .4969506E-03  -.4950305E-01   .1000000E+01   .3099890E+00
   .0000000E+00   .0000000E+00   .5250000E-01   .4846677E-03  -.5201533E-01   .1000000E+01   .3191920E+00
   .0000000E+00   .0000000E+00   .5500000E-01   .4735709E-03  -.5452643E-01   .1000000E+01   .3263017E+00
   .0000000E+00   .0000000E+00   .5750000E-01   .4632969E-03  -.5703670E-01   .1000000E+01   .3317746E+00
   .0000000E+00   .0000000E+00   .6000000E-01   .4536073E-03  -.5954639E-01   .1000000E+01   .3359828E+00
   .0000000E+00   .0000000E+00   .6250000E-01   .4443405E-03  -.6205566E-01   .1000000E+01   .3392176E+00
   .0000000E+00   .0000000E+00   .6500000E-01   .4353840E-03  -.6456462E-01   .1000000E+01   .3417046E+00
   .0000000E+00   .0000000E+00   .6750000E-01   .4266579E-03  -.6707334E-01   .1000000E+01   .3436170E+00
   .0000000E+00   .0000000E+00   .7000000E-01   .4181042E-03  -.6958190E-01   .1000000E+01   .3450880E+00
   .0000000E+00   .0000000E+00   .7250000E-01   .4096804E-03  -.7209032E-01   .1000000E+01   .3462197E+00
   .0000000E+00   .0000000E+00   .7500000E-01   .4013550E-03  -.7459864E-01   .1000000E+01   .3470906E+00
   .0000000E+00   .0000000E+00   .7750000E-01   .3931045E-03  -.7710690E-01   .1000000E+01   .3477608E+00
   .0000000E+00   .0000000E+00   .8000000E-01   .3849110E-03  -.7961509E-01   .1000000E+01   .3482767E+00
   .0000000E+00   .0000000E+00   .8250000E-01   .3767611E-03  -.8212324E-01   .1000000E+01   .3486738E+00
   .0000000E+00   .0000000E+00   .8500000E-01   .3686446E-03  -.8463136E-01   .1000000E+01   .3489796E+00
   .0000000E+00   .0000000E+00   .8750000E-01   .3605537E-03  -.8713945E-01   .1000000E+01   .3492151E+00
   .0000000E+00   .0000000E+00   .9000000E-01   .3524824E-03  -.8964752E-01   .1000000E+01   .3493963E+00
   .0000000E+00   .0000000E+00   .9250000E-01   .3444262E-03  -.9215557E-01   .1000000E+01   .3495359E+00
   .0000000E+00   .0000000E+00   .9500000E-01   .3363816E-03  -.9466362E-01   .1000000E+01   .3496433E+00
   .0000000E+00   .0000000E+00   .9750000E-01   .3283459E-03  -.9717165E-01   .1000000E+01   .3497261E+00
   .0000000E+00   .0000000E+00   .1000000E+00   .3203171E-03  -.9967968E-01   .1000000E+01   .3497898E+00
   .0000000E+00   .0000000E+00   .1025000E+00   .3122935E-03  -.1021877E+00   .1000000E+01   .3498390E+00
   .0000000E+00   .0000000E+00   .1050000E+00   .3042740E-03  -.1046957E+00   .1000000E+01   .3498768E+00
   .0000000E+00   .0000000E+00   .1075000E+00   .2962577E-03  -.1072037E+00   .1000000E+01   .3499059E+00
   .0000000E+00   .0000000E+00   .1100000E+00   .2882437E-03  -.1097118E+00   .1000000E+01   .3499282E+00
   .0000000E+00   .0000000E+00   .1125000E+00   .2802316E-03  -.1122198E+00   .1000000E+01   .3499454E+00
   .0000000E+00   .0000000E+00   .1150000E+00   .2722209E-03  -.1147278E+00   .1000000E+01   .3499587E+00
   .0000000E+00   .0000000E+00   .1175000E+00   .2642113E-03  -.1172358E+00   .1000000E+01   .3499688E+00
   .0000000E+00   .0000000E+00   .1200000E+00   .2562026E-03  -.1197438E+00   .1000000E+01   .3499766E+00
   .0000000E+00   .0000000E+00   .1225000E+00   .2481944E-03  -.1222518E+00   .1000000E+01   .3499827E+00
   .0000000E+00   .0000000E+00   .1250000E+00   .2401868E-03  -.1247598E+00   .1000000E+01   .3499873E+00
   .0000000E+00   .0000000E+00   .1275000E+00   .2321796E-03  -.1272678E+00   .1000000E+01   .3499909E+00
   .0000000E+00   .0000000E+00   .1300000E+00   .2241727E-03  -.1297758E+00   .1000000E+01   .3499937E+00
   .0000000E+00   .0000000E+00   .1325000E+00   .2161660E-03  -.1322838E+00   .1000000E+01   .3499959E+00
   .0000000E+00   .0000000E+00   .1350000E+00   .2081594E-03  -.1347918E+00   .1000000E+01   .3499974E+00
   .0000000E+00   .0000000E+00   .1375000E+00   .2001530E-03  -.1372998E+00   .1000000E+01   .3499985E+00
   .0000000E+00   .0000000E+00   .1400000E+00   .1921467E-03  -.1398079E+00   .1000000E+01   .3499994E+00
   .0000000E+00   .0000000E+00   .1425000E+00   .1841404E-03  -.1423159E+00   .1000000E+01   .3499999E+00
   .0000000E+00   .0000000E+00   .1450000E+00   .1761342E-03  -.1448239E+00   .1000000E+01   .3500004E+00
   .0000000E+00   .0000000E+00   .1475000E+00   .1681281E-03  -.1473319E+00   .1000000E+01   .3500007E+00
   .0000000E+00   .0000000E+00   .1500000E+00   .1601219E-03  -.1498399E+00   .1000000E+01   .3500009E+00
   .0000000E+00   .0000000E+00   .1525000E+00   .1521158E-03  -.1523479E+00   .1000000E+01   .3500010E+00
   .0000000E+00   .0000000E+00   .1550000E+00   .1441097E-03  -.1548559E+00   .1000000E+01   .3500011E+00
   .0000000E+00   .0000000E+00   .1575000E+00   .1361036E-03  -.1573639E+00   .1000000E+01   .3500011E+00
   .0000000E+00   .0000000E+00   .1600000E+00   .1280974E-03  -.1598719E+00   .1000000E+01   .3500012E+00
   .0000000E+00   .0000000E+00   .1625000E+00   .1200913E-03  -.1623799E+00   .1000000E+01   .3500012E+00
   .0000000E+00   .0000000E+00   .1650000E+00   .1120852E-03  -.1648879E+00   .1000000E+01   .3500013E+00
   .0000000E+00   .0000000E+00   .1675000E+00   .1040791E-03  -.1673959E+00   .1000000E+01   .3500013E+00
   .0000000E+00   .0000000E+00   .1700000E+00   .9607305E-04  -.1699039E+00   .1000000E+01   .3500014E+00
   .0000000E+00   .0000000E+00   .1725000E+00   .8806697E-04  -.1724119E+00   .1000000E+01   .3500015E+00
   .0000000E+00   .0000000E+00   .1750000E+00   .8006090E-04  -.1749199E+00   .1000000E+01   .3500017E+00
   .0000000E+00   .0000000E+00   .1775000E+00   .7205485E-04  -.1774279E+00   .1000000E+01   .3500019E+00
   .0000000E+00   .0000000E+00   .1800000E+00   .6404881E-04  -.1799360E+00   .1000000E+01   .3500019E+00
   .0000000E+00   .0000000E+00   .1825000E+00   .5604276E-04  -.1824440E+00   .1000000E+01   .3500018E+00
   .0000000E+00   .0000000E+00   .1850000E+00   .4803670E-04  -.1849520E+00   .1000000E+01   .3500016E+00
   .0000000E+00   .0000000E+00   .1875000E+00   .4003062E-04  -.1874600E+00   .1000000E+01   .3500014E+00
   .0000000E+00   .0000000E+00   .1900000E+00   .3202453E-04  -.1899680E+00   .1000000E+01   .3500013E+00
   .0000000E+00   .0000000E+00   .1925000E+00   .2401842E-04  -.1924760E+00   .1000000E+01   .3500011E+00
   .0000000E+00   .0000000E+00   .1950000E+00   .1601229E-04  -.1949840E+00   .1000000E+01   .3500009E+00
   .0000000E+00   .0000000E+00   .1975000E+00   .8006156E-05  -.1974920E+00   .1000000E+01   .3500008E+00
   .0000000E+00   .0000000E+00   .2000000E+00   .0000000E+00  -.2000000E+00   .1000000E+01   .3500006E+00
