title = "dataset perm3"
variables = "x", "y", "z","calcite","gypsum","porosity"
zone t = "phi_i, T =  1.000E+01 years", i =   81, j =    1, k =    1,  f=point
   .0000000E+00   .0000000E+00   .0000000E+00   .1244006E-01   .1000000E-09   .6369998E+00
   .0000000E+00   .0000000E+00   .2500000E-02   .1260384E-01   .1000000E-09   .6368312E+00
   .0000000E+00   .0000000E+00   .5000000E-02   .1478212E-01   .1000000E-09   .6345905E+00
   .0000000E+00   .0000000E+00   .7500000E-02   .2276264E-01   .1000000E-09   .6264039E+00
   .0000000E+00   .0000000E+00   .1000000E-01   .4117949E-01   .1000000E-09   .6075884E+00
   .0000000E+00   .0000000E+00   .1250000E-01   .7343419E-01   .1000000E-09   .5747695E+00
   .0000000E+00   .0000000E+00   .1500000E-01   .1198960E+00   .4306769E-01   .4823766E+00
   .0000000E+00   .0000000E+00   .1750000E-01   .1754508E+00   .9557586E-01   .3760873E+00
   .0000000E+00   .0000000E+00   .2000000E-01   .2268878E+00   .1073065E+00   .3145874E+00
   .0000000E+00   .0000000E+00   .2250000E-01   .2617524E+00   .9807018E-01   .2902004E+00
   .0000000E+00   .0000000E+00   .2500000E-01   .2801293E+00   .8197975E-01   .2884995E+00
   .0000000E+00   .0000000E+00   .2750000E-01   .2887635E+00   .6581737E-01   .2961614E+00
   .0000000E+00   .0000000E+00   .3000000E-01   .2928754E+00   .5188704E-01   .3059196E+00
   .0000000E+00   .0000000E+00   .3250000E-01   .2950409E+00   .4057501E-01   .3149517E+00
   .0000000E+00   .0000000E+00   .3500000E-01   .2963431E+00   .3161852E-01   .3224919E+00
   .0000000E+00   .0000000E+00   .3750000E-01   .2972203E+00   .2460437E-01   .3285314E+00
   .0000000E+00   .0000000E+00   .4000000E-01   .2978562E+00   .1913681E-01   .3332843E+00
   .0000000E+00   .0000000E+00   .4250000E-01   .2983358E+00   .1488231E-01   .3369973E+00
   .0000000E+00   .0000000E+00   .4500000E-01   .2987044E+00   .1157412E-01   .3398885E+00
   .0000000E+00   .0000000E+00   .4750000E-01   .2989902E+00   .9002166E-02   .3421372E+00
   .0000000E+00   .0000000E+00   .5000000E-01   .2992124E+00   .7002199E-02   .3438858E+00
   .0000000E+00   .0000000E+00   .5250000E-01   .2993855E+00   .5447195E-02   .3452452E+00
   .0000000E+00   .0000000E+00   .5500000E-01   .2995204E+00   .4237705E-02   .3463023E+00
   .0000000E+00   .0000000E+00   .5750000E-01   .2996255E+00   .3297015E-02   .3471244E+00
   .0000000E+00   .0000000E+00   .6000000E-01   .2997073E+00   .2565251E-02   .3477638E+00
   .0000000E+00   .0000000E+00   .6250000E-01   .2997711E+00   .1995986E-02   .3482611E+00
   .0000000E+00   .0000000E+00   .6500000E-01   .2998207E+00   .1553121E-02   .3486480E+00
   .0000000E+00   .0000000E+00   .6750000E-01   .2998594E+00   .1208563E-02   .3489490E+00
   .0000000E+00   .0000000E+00   .7000000E-01   .2998895E+00   .9404941E-03   .3491832E+00
   .0000000E+00   .0000000E+00   .7250000E-01   .2999129E+00   .7319393E-03   .3493653E+00
   .0000000E+00   .0000000E+00   .7500000E-01   .2999312E+00   .5696160E-03   .3495071E+00
   .0000000E+00   .0000000E+00   .7750000E-01   .2999454E+00   .4433799E-03   .3496174E+00
   .0000000E+00   .0000000E+00   .8000000E-01   .2999564E+00   .3451593E-03   .3497032E+00
   .0000000E+00   .0000000E+00   .8250000E-01   .2999650E+00   .2687162E-03   .3497699E+00
   .0000000E+00   .0000000E+00   .8500000E-01   .2999717E+00   .2092073E-03   .3498219E+00
   .0000000E+00   .0000000E+00   .8750000E-01   .2999770E+00   .1629238E-03   .3498623E+00
   .0000000E+00   .0000000E+00   .9000000E-01   .2999810E+00   .1269700E-03   .3498937E+00
   .0000000E+00   .0000000E+00   .9250000E-01   .2999842E+00   .9900452E-04   .3499181E+00
   .0000000E+00   .0000000E+00   .9500000E-01   .2999867E+00   .7725022E-04   .3499371E+00
   .0000000E+00   .0000000E+00   .9750000E-01   .2999886E+00   .6032226E-04   .3499519E+00
   .0000000E+00   .0000000E+00   .1000000E+00   .2999901E+00   .4714092E-04   .3499634E+00
   .0000000E+00   .0000000E+00   .1025000E+00   .2999912E+00   .3686373E-04   .3499724E+00
   .0000000E+00   .0000000E+00   .1050000E+00   .2999921E+00   .2883273E-04   .3499794E+00
   .0000000E+00   .0000000E+00   .1075000E+00   .2999929E+00   .2270877E-04   .3499847E+00
   .0000000E+00   .0000000E+00   .1100000E+00   .2999934E+00   .1798212E-04   .3499888E+00
   .0000000E+00   .0000000E+00   .1125000E+00   .2999938E+00   .1433185E-04   .3499920E+00
   .0000000E+00   .0000000E+00   .1150000E+00   .2999942E+00   .1151588E-04   .3499945E+00
   .0000000E+00   .0000000E+00   .1175000E+00   .2999944E+00   .9344585E-05   .3499964E+00
   .0000000E+00   .0000000E+00   .1200000E+00   .2999946E+00   .7669054E-05   .3499978E+00
   .0000000E+00   .0000000E+00   .1225000E+00   .2999947E+00   .6371992E-05   .3499989E+00
   .0000000E+00   .0000000E+00   .1250000E+00   .2999949E+00   .5360643E-05   .3499998E+00
   .0000000E+00   .0000000E+00   .1275000E+00   .2999950E+00   .4561300E-05   .3500005E+00
   .0000000E+00   .0000000E+00   .1300000E+00   .2999950E+00   .3915067E-05   .3500011E+00
   .0000000E+00   .0000000E+00   .1325000E+00   .2999951E+00   .3374563E-05   .3500016E+00
   .0000000E+00   .0000000E+00   .1350000E+00   .2999951E+00   .3118145E-05   .3500018E+00
   .0000000E+00   .0000000E+00   .1375000E+00   .2999951E+00   .3004941E-05   .3500019E+00
   .0000000E+00   .0000000E+00   .1400000E+00   .2999951E+00   .2965935E-05   .3500019E+00
   .0000000E+00   .0000000E+00   .1425000E+00   .2999951E+00   .2983077E-05   .3500019E+00
   .0000000E+00   .0000000E+00   .1450000E+00   .2999951E+00   .3041538E-05   .3500019E+00
   .0000000E+00   .0000000E+00   .1475000E+00   .2999950E+00   .3128971E-05   .3500018E+00
   .0000000E+00   .0000000E+00   .1500000E+00   .2999950E+00   .3234923E-05   .3500018E+00
   .0000000E+00   .0000000E+00   .1525000E+00   .2999950E+00   .3350390E-05   .3500017E+00
   .0000000E+00   .0000000E+00   .1550000E+00   .2999949E+00   .3467479E-05   .3500016E+00
   .0000000E+00   .0000000E+00   .1575000E+00   .2999949E+00   .3579152E-05   .3500016E+00
   .0000000E+00   .0000000E+00   .1600000E+00   .2999948E+00   .3679034E-05   .3500015E+00
   .0000000E+00   .0000000E+00   .1625000E+00   .2999948E+00   .3761277E-05   .3500015E+00
   .0000000E+00   .0000000E+00   .1650000E+00   .2999947E+00   .3820459E-05   .3500015E+00
   .0000000E+00   .0000000E+00   .1675000E+00   .2999947E+00   .3851510E-05   .3500015E+00
   .0000000E+00   .0000000E+00   .1700000E+00   .2999946E+00   .3849670E-05   .3500015E+00
   .0000000E+00   .0000000E+00   .1725000E+00   .2999946E+00   .3810457E-05   .3500016E+00
   .0000000E+00   .0000000E+00   .1750000E+00   .2999945E+00   .3729650E-05   .3500018E+00
   .0000000E+00   .0000000E+00   .1775000E+00   .2999945E+00   .3603283E-05   .3500019E+00
   .0000000E+00   .0000000E+00   .1800000E+00   .2999944E+00   .3627385E-05   .3500020E+00
   .0000000E+00   .0000000E+00   .1825000E+00   .2999943E+00   .3886111E-05   .3500018E+00
   .0000000E+00   .0000000E+00   .1850000E+00   .2999942E+00   .4150025E-05   .3500016E+00
   .0000000E+00   .0000000E+00   .1875000E+00   .2999941E+00   .4416196E-05   .3500014E+00
   .0000000E+00   .0000000E+00   .1900000E+00   .2999940E+00   .4681902E-05   .3500013E+00
   .0000000E+00   .0000000E+00   .1925000E+00   .2999939E+00   .4944580E-05   .3500011E+00
   .0000000E+00   .0000000E+00   .1950000E+00   .2999938E+00   .5201780E-05   .3500010E+00
   .0000000E+00   .0000000E+00   .1975000E+00   .2999938E+00   .5451143E-05   .3500008E+00
   .0000000E+00   .0000000E+00   .2000000E+00   .2999939E+00   .5574988E-05   .3500006E+00
