title = "dataset perm3"
variables = "x", "y", "z", "h_w", "p_w", "s_w", "theta_a"
zone t = "Flow variables, solution time =  1.000E+01 years       " i =   81, j =    1, k =    1,  f=point
   .0000000E+00   .0000000E+00   .0000000E+00   .7000000E-03   .7000000E-03   .1000000E+01   .6369998E+00
   .0000000E+00   .0000000E+00   .2500000E-02   .6995491E-03  -.1800451E-02   .1000000E+01   .6368312E+00
   .0000000E+00   .0000000E+00   .5000000E-02   .6990926E-03  -.4300907E-02   .1000000E+01   .6345905E+00
   .0000000E+00   .0000000E+00   .7500000E-02   .6986108E-03  -.6801389E-02   .1000000E+01   .6264039E+00
   .0000000E+00   .0000000E+00   .1000000E-01   .6980565E-03  -.9301943E-02   .1000000E+01   .6075884E+00
   .0000000E+00   .0000000E+00   .1250000E-01   .6973324E-03  -.1180267E-01   .1000000E+01   .5747695E+00
   .0000000E+00   .0000000E+00   .1500000E-01   .6958568E-03  -.1430414E-01   .1000000E+01   .4823766E+00
   .0000000E+00   .0000000E+00   .1750000E-01   .6915686E-03  -.1680843E-01   .1000000E+01   .3760873E+00
   .0000000E+00   .0000000E+00   .2000000E-01   .6816675E-03  -.1931833E-01   .1000000E+01   .3145874E+00
   .0000000E+00   .0000000E+00   .2250000E-01   .6658910E-03  -.2183411E-01   .1000000E+01   .2902004E+00
   .0000000E+00   .0000000E+00   .2500000E-01   .6474667E-03  -.2435253E-01   .1000000E+01   .2884995E+00
   .0000000E+00   .0000000E+00   .2750000E-01   .6297247E-03  -.2687028E-01   .1000000E+01   .2961614E+00
   .0000000E+00   .0000000E+00   .3000000E-01   .6138631E-03  -.2938614E-01   .1000000E+01   .3059196E+00
   .0000000E+00   .0000000E+00   .3250000E-01   .5997906E-03  -.3190021E-01   .1000000E+01   .3149517E+00
   .0000000E+00   .0000000E+00   .3500000E-01   .5871059E-03  -.3441289E-01   .1000000E+01   .3224919E+00
   .0000000E+00   .0000000E+00   .3750000E-01   .5754402E-03  -.3692456E-01   .1000000E+01   .3285314E+00
   .0000000E+00   .0000000E+00   .4000000E-01   .5645164E-03  -.3943548E-01   .1000000E+01   .3332843E+00
   .0000000E+00   .0000000E+00   .4250000E-01   .5541358E-03  -.4194586E-01   .1000000E+01   .3369973E+00
   .0000000E+00   .0000000E+00   .4500000E-01   .5441572E-03  -.4445584E-01   .1000000E+01   .3398885E+00
   .0000000E+00   .0000000E+00   .4750000E-01   .5344788E-03  -.4696552E-01   .1000000E+01   .3421372E+00
   .0000000E+00   .0000000E+00   .5000000E-01   .5250266E-03  -.4947497E-01   .1000000E+01   .3438858E+00
   .0000000E+00   .0000000E+00   .5250000E-01   .5157459E-03  -.5198425E-01   .1000000E+01   .3452452E+00
   .0000000E+00   .0000000E+00   .5500000E-01   .5065962E-03  -.5449340E-01   .1000000E+01   .3463023E+00
   .0000000E+00   .0000000E+00   .5750000E-01   .4975468E-03  -.5700245E-01   .1000000E+01   .3471244E+00
   .0000000E+00   .0000000E+00   .6000000E-01   .4885745E-03  -.5951143E-01   .1000000E+01   .3477638E+00
   .0000000E+00   .0000000E+00   .6250000E-01   .4796617E-03  -.6202034E-01   .1000000E+01   .3482611E+00
   .0000000E+00   .0000000E+00   .6500000E-01   .4707948E-03  -.6452921E-01   .1000000E+01   .3486480E+00
   .0000000E+00   .0000000E+00   .6750000E-01   .4619635E-03  -.6703804E-01   .1000000E+01   .3489490E+00
   .0000000E+00   .0000000E+00   .7000000E-01   .4531597E-03  -.6954684E-01   .1000000E+01   .3491832E+00
   .0000000E+00   .0000000E+00   .7250000E-01   .4443773E-03  -.7205562E-01   .1000000E+01   .3493653E+00
   .0000000E+00   .0000000E+00   .7500000E-01   .4356114E-03  -.7456439E-01   .1000000E+01   .3495071E+00
   .0000000E+00   .0000000E+00   .7750000E-01   .4268584E-03  -.7707314E-01   .1000000E+01   .3496174E+00
   .0000000E+00   .0000000E+00   .8000000E-01   .4181154E-03  -.7958188E-01   .1000000E+01   .3497032E+00
   .0000000E+00   .0000000E+00   .8250000E-01   .4093802E-03  -.8209062E-01   .1000000E+01   .3497699E+00
   .0000000E+00   .0000000E+00   .8500000E-01   .4006510E-03  -.8459935E-01   .1000000E+01   .3498219E+00
   .0000000E+00   .0000000E+00   .8750000E-01   .3919265E-03  -.8710807E-01   .1000000E+01   .3498623E+00
   .0000000E+00   .0000000E+00   .9000000E-01   .3832057E-03  -.8961679E-01   .1000000E+01   .3498937E+00
   .0000000E+00   .0000000E+00   .9250000E-01   .3744877E-03  -.9212551E-01   .1000000E+01   .3499181E+00
   .0000000E+00   .0000000E+00   .9500000E-01   .3657719E-03  -.9463423E-01   .1000000E+01   .3499371E+00
   .0000000E+00   .0000000E+00   .9750000E-01   .3570578E-03  -.9714294E-01   .1000000E+01   .3499519E+00
   .0000000E+00   .0000000E+00   .1000000E+00   .3483451E-03  -.9965165E-01   .1000000E+01   .3499634E+00
   .0000000E+00   .0000000E+00   .1025000E+00   .3396334E-03  -.1021604E+00   .1000000E+01   .3499724E+00
   .0000000E+00   .0000000E+00   .1050000E+00   .3309225E-03  -.1046691E+00   .1000000E+01   .3499794E+00
   .0000000E+00   .0000000E+00   .1075000E+00   .3222122E-03  -.1071778E+00   .1000000E+01   .3499847E+00
   .0000000E+00   .0000000E+00   .1100000E+00   .3135024E-03  -.1096865E+00   .1000000E+01   .3499888E+00
   .0000000E+00   .0000000E+00   .1125000E+00   .3047930E-03  -.1121952E+00   .1000000E+01   .3499920E+00
   .0000000E+00   .0000000E+00   .1150000E+00   .2960838E-03  -.1147039E+00   .1000000E+01   .3499945E+00
   .0000000E+00   .0000000E+00   .1175000E+00   .2873749E-03  -.1172126E+00   .1000000E+01   .3499964E+00
   .0000000E+00   .0000000E+00   .1200000E+00   .2786662E-03  -.1197213E+00   .1000000E+01   .3499978E+00
   .0000000E+00   .0000000E+00   .1225000E+00   .2699575E-03  -.1222300E+00   .1000000E+01   .3499989E+00
   .0000000E+00   .0000000E+00   .1250000E+00   .2612490E-03  -.1247388E+00   .1000000E+01   .3499998E+00
   .0000000E+00   .0000000E+00   .1275000E+00   .2525406E-03  -.1272475E+00   .1000000E+01   .3500005E+00
   .0000000E+00   .0000000E+00   .1300000E+00   .2438322E-03  -.1297562E+00   .1000000E+01   .3500011E+00
   .0000000E+00   .0000000E+00   .1325000E+00   .2351239E-03  -.1322649E+00   .1000000E+01   .3500016E+00
   .0000000E+00   .0000000E+00   .1350000E+00   .2264156E-03  -.1347736E+00   .1000000E+01   .3500018E+00
   .0000000E+00   .0000000E+00   .1375000E+00   .2177074E-03  -.1372823E+00   .1000000E+01   .3500019E+00
   .0000000E+00   .0000000E+00   .1400000E+00   .2089991E-03  -.1397910E+00   .1000000E+01   .3500019E+00
   .0000000E+00   .0000000E+00   .1425000E+00   .2002908E-03  -.1422997E+00   .1000000E+01   .3500019E+00
   .0000000E+00   .0000000E+00   .1450000E+00   .1915826E-03  -.1448084E+00   .1000000E+01   .3500019E+00
   .0000000E+00   .0000000E+00   .1475000E+00   .1828743E-03  -.1473171E+00   .1000000E+01   .3500018E+00
   .0000000E+00   .0000000E+00   .1500000E+00   .1741660E-03  -.1498258E+00   .1000000E+01   .3500018E+00
   .0000000E+00   .0000000E+00   .1525000E+00   .1654578E-03  -.1523345E+00   .1000000E+01   .3500017E+00
   .0000000E+00   .0000000E+00   .1550000E+00   .1567495E-03  -.1548433E+00   .1000000E+01   .3500016E+00
   .0000000E+00   .0000000E+00   .1575000E+00   .1480412E-03  -.1573520E+00   .1000000E+01   .3500016E+00
   .0000000E+00   .0000000E+00   .1600000E+00   .1393329E-03  -.1598607E+00   .1000000E+01   .3500015E+00
   .0000000E+00   .0000000E+00   .1625000E+00   .1306246E-03  -.1623694E+00   .1000000E+01   .3500015E+00
   .0000000E+00   .0000000E+00   .1650000E+00   .1219163E-03  -.1648781E+00   .1000000E+01   .3500015E+00
   .0000000E+00   .0000000E+00   .1675000E+00   .1132080E-03  -.1673868E+00   .1000000E+01   .3500015E+00
   .0000000E+00   .0000000E+00   .1700000E+00   .1044997E-03  -.1698955E+00   .1000000E+01   .3500015E+00
   .0000000E+00   .0000000E+00   .1725000E+00   .9579139E-04  -.1724042E+00   .1000000E+01   .3500016E+00
   .0000000E+00   .0000000E+00   .1750000E+00   .8708311E-04  -.1749129E+00   .1000000E+01   .3500018E+00
   .0000000E+00   .0000000E+00   .1775000E+00   .7837484E-04  -.1774216E+00   .1000000E+01   .3500019E+00
   .0000000E+00   .0000000E+00   .1800000E+00   .6966659E-04  -.1799303E+00   .1000000E+01   .3500020E+00
   .0000000E+00   .0000000E+00   .1825000E+00   .6095832E-04  -.1824390E+00   .1000000E+01   .3500018E+00
   .0000000E+00   .0000000E+00   .1850000E+00   .5225004E-04  -.1849477E+00   .1000000E+01   .3500016E+00
   .0000000E+00   .0000000E+00   .1875000E+00   .4354175E-04  -.1874565E+00   .1000000E+01   .3500014E+00
   .0000000E+00   .0000000E+00   .1900000E+00   .3483343E-04  -.1899652E+00   .1000000E+01   .3500013E+00
   .0000000E+00   .0000000E+00   .1925000E+00   .2612510E-04  -.1924739E+00   .1000000E+01   .3500011E+00
   .0000000E+00   .0000000E+00   .1950000E+00   .1741675E-04  -.1949826E+00   .1000000E+01   .3500010E+00
   .0000000E+00   .0000000E+00   .1975000E+00   .8708384E-05  -.1974913E+00   .1000000E+01   .3500008E+00
   .0000000E+00   .0000000E+00   .2000000E+00   .0000000E+00  -.2000000E+00   .1000000E+01   .3500006E+00
