title = "dataset perm3"
variables = "x", "y", "z", "h_w", "p_w", "s_w", "theta_a"
zone t = "Flow variables, solution time =  5.000E+01 years       " i =   81, j =    1, k =    1,  f=point
   .0000000E+00   .0000000E+00   .0000000E+00   .7000000E-03   .7000000E-03   .1000000E+01   .6500000E+00
   .0000000E+00   .0000000E+00   .2500000E-02   .6999838E-03  -.1800016E-02   .1000000E+01   .6500000E+00
   .0000000E+00   .0000000E+00   .5000000E-02   .6999675E-03  -.4300032E-02   .1000000E+01   .6500000E+00
   .0000000E+00   .0000000E+00   .7500000E-02   .6999513E-03  -.6800049E-02   .1000000E+01   .6500000E+00
   .0000000E+00   .0000000E+00   .1000000E-01   .6999351E-03  -.9300065E-02   .1000000E+01   .6500000E+00
   .0000000E+00   .0000000E+00   .1250000E-01   .6999189E-03  -.1180008E-01   .1000000E+01   .6500000E+00
   .0000000E+00   .0000000E+00   .1500000E-01   .6999026E-03  -.1430010E-01   .1000000E+01   .6500000E+00
   .0000000E+00   .0000000E+00   .1750000E-01   .6998864E-03  -.1680011E-01   .1000000E+01   .6500000E+00
   .0000000E+00   .0000000E+00   .2000000E-01   .6998702E-03  -.1930013E-01   .1000000E+01   .6500000E+00
   .0000000E+00   .0000000E+00   .2250000E-01   .6998540E-03  -.2180015E-01   .1000000E+01   .6500000E+00
   .0000000E+00   .0000000E+00   .2500000E-01   .6998377E-03  -.2430016E-01   .1000000E+01   .6500000E+00
   .0000000E+00   .0000000E+00   .2750000E-01   .6998215E-03  -.2680018E-01   .1000000E+01   .6500000E+00
   .0000000E+00   .0000000E+00   .3000000E-01   .6998053E-03  -.2930019E-01   .1000000E+01   .6500000E+00
   .0000000E+00   .0000000E+00   .3250000E-01   .6997891E-03  -.3180021E-01   .1000000E+01   .6500000E+00
   .0000000E+00   .0000000E+00   .3500000E-01   .6997728E-03  -.3430023E-01   .1000000E+01   .6500000E+00
   .0000000E+00   .0000000E+00   .3750000E-01   .6997566E-03  -.3680024E-01   .1000000E+01   .6500000E+00
   .0000000E+00   .0000000E+00   .4000000E-01   .6997404E-03  -.3930026E-01   .1000000E+01   .6500000E+00
   .0000000E+00   .0000000E+00   .4250000E-01   .6997241E-03  -.4180028E-01   .1000000E+01   .6500000E+00
   .0000000E+00   .0000000E+00   .4500000E-01   .6997079E-03  -.4430029E-01   .1000000E+01   .6500000E+00
   .0000000E+00   .0000000E+00   .4750000E-01   .6996917E-03  -.4680031E-01   .1000000E+01   .6500000E+00
   .0000000E+00   .0000000E+00   .5000000E-01   .6995235E-03  -.4930048E-01   .1000000E+01   .3597920E+00
   .0000000E+00   .0000000E+00   .5250000E-01   .6963276E-03  -.5180367E-01   .1000000E+01   .1615010E+00
   .0000000E+00   .0000000E+00   .5500000E-01   .5131309E-03  -.5448687E-01   .1000000E+01   .4515127E-01
   .0000000E+00   .0000000E+00   .5750000E-01   .1855797E-03  -.5731442E-01   .1000000E+01   .4817433E-01
   .0000000E+00   .0000000E+00   .6000000E-01   .3144856E-04  -.5996855E-01   .1000000E+01   .1271516E+00
   .0000000E+00   .0000000E+00   .6250000E-01   .2324984E-04  -.6247675E-01   .1000000E+01   .1998901E+00
   .0000000E+00   .0000000E+00   .6500000E-01   .2113173E-04  -.6497887E-01   .1000000E+01   .2494380E+00
   .0000000E+00   .0000000E+00   .6750000E-01   .2005249E-04  -.6747995E-01   .1000000E+01   .2818400E+00
   .0000000E+00   .0000000E+00   .7000000E-01   .1931659E-04  -.6998068E-01   .1000000E+01   .3031899E+00
   .0000000E+00   .0000000E+00   .7250000E-01   .1873495E-04  -.7248127E-01   .1000000E+01   .3174811E+00
   .0000000E+00   .0000000E+00   .7500000E-01   .1823511E-04  -.7498176E-01   .1000000E+01   .3271928E+00
   .0000000E+00   .0000000E+00   .7750000E-01   .1778321E-04  -.7748222E-01   .1000000E+01   .3338771E+00
   .0000000E+00   .0000000E+00   .8000000E-01   .1736123E-04  -.7998264E-01   .1000000E+01   .3385266E+00
   .0000000E+00   .0000000E+00   .8250000E-01   .1695873E-04  -.8248304E-01   .1000000E+01   .3417891E+00
   .0000000E+00   .0000000E+00   .8500000E-01   .1656931E-04  -.8498343E-01   .1000000E+01   .3440952E+00
   .0000000E+00   .0000000E+00   .8750000E-01   .1618885E-04  -.8748381E-01   .1000000E+01   .3457355E+00
   .0000000E+00   .0000000E+00   .9000000E-01   .1581462E-04  -.8998419E-01   .1000000E+01   .3469085E+00
   .0000000E+00   .0000000E+00   .9250000E-01   .1544480E-04  -.9248456E-01   .1000000E+01   .3477514E+00
   .0000000E+00   .0000000E+00   .9500000E-01   .1507810E-04  -.9498492E-01   .1000000E+01   .3483597E+00
   .0000000E+00   .0000000E+00   .9750000E-01   .1471364E-04  -.9748529E-01   .1000000E+01   .3488003E+00
   .0000000E+00   .0000000E+00   .1000000E+00   .1435080E-04  -.9998565E-01   .1000000E+01   .3491205E+00
   .0000000E+00   .0000000E+00   .1025000E+00   .1398912E-04  -.1024860E+00   .1000000E+01   .3493540E+00
   .0000000E+00   .0000000E+00   .1050000E+00   .1362830E-04  -.1049864E+00   .1000000E+01   .3495248E+00
   .0000000E+00   .0000000E+00   .1075000E+00   .1326810E-04  -.1074867E+00   .1000000E+01   .3496498E+00
   .0000000E+00   .0000000E+00   .1100000E+00   .1290836E-04  -.1099871E+00   .1000000E+01   .3497417E+00
   .0000000E+00   .0000000E+00   .1125000E+00   .1254895E-04  -.1124875E+00   .1000000E+01   .3498093E+00
   .0000000E+00   .0000000E+00   .1150000E+00   .1218979E-04  -.1149878E+00   .1000000E+01   .3498591E+00
   .0000000E+00   .0000000E+00   .1175000E+00   .1183080E-04  -.1174882E+00   .1000000E+01   .3498960E+00
   .0000000E+00   .0000000E+00   .1200000E+00   .1147196E-04  -.1199885E+00   .1000000E+01   .3499233E+00
   .0000000E+00   .0000000E+00   .1225000E+00   .1111321E-04  -.1224889E+00   .1000000E+01   .3499435E+00
   .0000000E+00   .0000000E+00   .1250000E+00   .1075453E-04  -.1249892E+00   .1000000E+01   .3499585E+00
   .0000000E+00   .0000000E+00   .1275000E+00   .1039591E-04  -.1274896E+00   .1000000E+01   .3499698E+00
   .0000000E+00   .0000000E+00   .1300000E+00   .1003733E-04  -.1299900E+00   .1000000E+01   .3499781E+00
   .0000000E+00   .0000000E+00   .1325000E+00   .9678783E-05  -.1324903E+00   .1000000E+01   .3499844E+00
   .0000000E+00   .0000000E+00   .1350000E+00   .9320257E-05  -.1349907E+00   .1000000E+01   .3499890E+00
   .0000000E+00   .0000000E+00   .1375000E+00   .8961747E-05  -.1374910E+00   .1000000E+01   .3499923E+00
   .0000000E+00   .0000000E+00   .1400000E+00   .8603249E-05  -.1399914E+00   .1000000E+01   .3499947E+00
   .0000000E+00   .0000000E+00   .1425000E+00   .8244760E-05  -.1424918E+00   .1000000E+01   .3499965E+00
   .0000000E+00   .0000000E+00   .1450000E+00   .7886277E-05  -.1449921E+00   .1000000E+01   .3499978E+00
   .0000000E+00   .0000000E+00   .1475000E+00   .7527799E-05  -.1474925E+00   .1000000E+01   .3499988E+00
   .0000000E+00   .0000000E+00   .1500000E+00   .7169325E-05  -.1499928E+00   .1000000E+01   .3499995E+00
   .0000000E+00   .0000000E+00   .1525000E+00   .6810853E-05  -.1524932E+00   .1000000E+01   .3500000E+00
   .0000000E+00   .0000000E+00   .1550000E+00   .6452383E-05  -.1549935E+00   .1000000E+01   .3500003E+00
   .0000000E+00   .0000000E+00   .1575000E+00   .6093914E-05  -.1574939E+00   .1000000E+01   .3500006E+00
   .0000000E+00   .0000000E+00   .1600000E+00   .5735446E-05  -.1599943E+00   .1000000E+01   .3500008E+00
   .0000000E+00   .0000000E+00   .1625000E+00   .5376979E-05  -.1624946E+00   .1000000E+01   .3500009E+00
   .0000000E+00   .0000000E+00   .1650000E+00   .5018512E-05  -.1649950E+00   .1000000E+01   .3500010E+00
   .0000000E+00   .0000000E+00   .1675000E+00   .4660046E-05  -.1674953E+00   .1000000E+01   .3500012E+00
   .0000000E+00   .0000000E+00   .1700000E+00   .4301580E-05  -.1699957E+00   .1000000E+01   .3500013E+00
   .0000000E+00   .0000000E+00   .1725000E+00   .3943115E-05  -.1724961E+00   .1000000E+01   .3500014E+00
   .0000000E+00   .0000000E+00   .1750000E+00   .3584651E-05  -.1749964E+00   .1000000E+01   .3500016E+00
   .0000000E+00   .0000000E+00   .1775000E+00   .3226187E-05  -.1774968E+00   .1000000E+01   .3500018E+00
   .0000000E+00   .0000000E+00   .1800000E+00   .2867724E-05  -.1799971E+00   .1000000E+01   .3500019E+00
   .0000000E+00   .0000000E+00   .1825000E+00   .2509261E-05  -.1824975E+00   .1000000E+01   .3500017E+00
   .0000000E+00   .0000000E+00   .1850000E+00   .2150797E-05  -.1849978E+00   .1000000E+01   .3500016E+00
   .0000000E+00   .0000000E+00   .1875000E+00   .1792333E-05  -.1874982E+00   .1000000E+01   .3500014E+00
   .0000000E+00   .0000000E+00   .1900000E+00   .1433868E-05  -.1899986E+00   .1000000E+01   .3500013E+00
   .0000000E+00   .0000000E+00   .1925000E+00   .1075402E-05  -.1924989E+00   .1000000E+01   .3500011E+00
   .0000000E+00   .0000000E+00   .1950000E+00   .7169352E-06  -.1949993E+00   .1000000E+01   .3500009E+00
   .0000000E+00   .0000000E+00   .1975000E+00   .3584680E-06  -.1974996E+00   .1000000E+01   .3500008E+00
   .0000000E+00   .0000000E+00   .2000000E+00   .0000000E+00  -.2000000E+00   .1000000E+01   .3500006E+00
