title = "Analytic solution - BC at 10m"
variables = "time","cl-1","c2cl4","c6h6"
zone t = "Analytic x=10m", f=point
0.01	1.0000000E-10	1.0000000E-10	1.0000000E-10
0.02	1.0000000E-10	1.0000000E-10	1.0000000E-10
0.03	1.0000000E-10	1.0000000E-10	1.0000000E-10
0.04	1.0000000E-10	1.0000000E-10	1.0000000E-10
0.05	1.0000000E-10	1.0000000E-10	1.0000000E-10
0.06	1.0000000E-10	1.0000000E-10	1.0000000E-10
0.07	1.0000000E-10	1.0000000E-10	1.0000000E-10
0.08	1.0015347E-10	1.0000000E-10	1.0000000E-10
0.09	5.7761131E-10	1.0000000E-10	1.0000000E-10
0.1	1.6619994E-07	1.0000000E-10	1.0000000E-10
0.11	1.1832732E-05	1.0000000E-10	1.0000000E-10
0.12	2.5881280E-04	1.0000000E-10	1.0000000E-10
0.13	2.2950302E-03	1.0000000E-10	1.0000000E-10
0.14	1.0188385E-02	1.0000000E-10	1.0000000E-10
0.15	2.7338838E-02	1.0000000E-10	1.0000000E-10
0.16	5.1398355E-02	1.0000000E-10	1.0000000E-10
0.17	7.4324784E-02	1.0000000E-10	1.0000000E-10
0.18	8.9337968E-02	1.0000000E-10	1.0000000E-10
0.19	9.6416616E-02	1.0000000E-10	1.0000000E-10
0.2	9.8993834E-02	1.0000000E-10	1.0000000E-10
0.21	9.9758872E-02	1.0000000E-10	1.0000000E-10
0.22	9.9949917E-02	1.0000000E-10	1.0000020E-10
0.23	9.9990857E-02	1.0000000E-10	1.0000834E-10
0.24	9.9998513E-02	1.0000000E-10	1.0023020E-10
0.25	9.9999782E-02	1.0000000E-10	1.0450403E-10
0.26	9.9999971E-02	1.0000000E-10	1.6501634E-10
0.27	9.9999996E-02	1.0000000E-10	8.1641696E-10
0.28	1.0000000E-01	1.0000000E-10	6.3047375E-09
0.29	1.0000000E-01	1.0000000E-10	4.3416310E-08
0.3	1.0000000E-01	1.0000000E-10	2.4924991E-07
0.31	1.0000000E-01	1.0000000E-10	1.2036093E-06
0.32	1.0000000E-01	1.0000000E-10	4.9647587E-06
0.33	1.0000000E-01	1.0000000E-10	1.7749047E-05
0.34	1.0000000E-01	1.0000000E-10	5.5709184E-05
0.35	1.0000000E-01	1.0000000E-10	1.5527611E-04
0.36	1.0000000E-01	1.0000000E-10	3.8821915E-04
0.37	1.0000000E-01	1.0000000E-10	8.7846734E-04
0.38	1.0000000E-01	1.0000000E-10	1.8137008E-03
0.39	1.0000000E-01	1.0000000E-10	3.4425453E-03
0.4	1.0000000E-01	1.0000000E-10	6.0511766E-03
0.41	1.0000000E-01	1.0000000E-10	9.9215721E-03
0.42	1.0000000E-01	1.0000000E-10	1.5282578E-02
0.43	1.0000000E-01	1.0000004E-10	2.2267415E-02
0.44	1.0000000E-01	1.0000027E-10	3.0885472E-02
0.45	1.0000000E-01	1.0000183E-10	4.1008257E-02
0.46	1.0000000E-01	1.0001112E-10	5.2366893E-02
0.47	1.0000000E-01	1.0006116E-10	6.4562759E-02
0.48	1.0000000E-01	1.0030694E-10	7.7097533E-02
0.49	1.0000000E-01	1.0141358E-10	8.9426765E-02
0.5	1.0000000E-01	1.0600537E-10	1.0103100E-01
0.51	1.0000000E-01	1.2364726E-10	1.1148718E-01
0.52	1.0000000E-01	1.8668845E-10	1.2051924E-01
0.53	1.0000000E-01	3.9706731E-10	1.2801465E-01
0.54	1.0000000E-01	1.0552226E-09	1.3400695E-01
0.55	1.0000000E-01	2.9922435E-09	1.3863614E-01
0.56	1.0000000E-01	8.3729834E-09	1.4210231E-01
0.57	1.0000000E-01	2.2523559E-08	1.4462492E-01
0.58	1.0000000E-01	5.7855079E-08	1.4641376E-01
0.59	1.0000000E-01	1.4183105E-07	1.4765223E-01
0.6	1.0000000E-01	3.3229988E-07	1.4849075E-01
0.61	1.0000000E-01	7.4550921E-07	1.4904667E-01
0.62	1.0000000E-01	1.6047791E-06	1.4940795E-01
0.63	1.0000000E-01	3.3210178E-06	1.4963831E-01
0.64	1.0000000E-01	6.6196450E-06	1.4978252E-01
0.65	1.0000000E-01	1.2731345E-05	1.4987123E-01
0.66	1.0000000E-01	2.3665363E-05	1.4992487E-01
0.67	1.0000000E-01	4.2582472E-05	1.4995680E-01
0.68	1.0000000E-01	7.4278879E-05	1.4997550E-01
0.69	1.0000000E-01	1.2578111E-04	1.4998629E-01
0.7	1.0000000E-01	2.0703478E-04	1.4999242E-01
0.71	1.0000000E-01	3.3164805E-04	1.4999586E-01
0.72	1.0000000E-01	5.1762550E-04	1.4999777E-01
0.73	1.0000000E-01	7.8800456E-04	1.4999881E-01
0.74	1.0000000E-01	1.1712897E-03	1.4999937E-01
0.75	1.0000000E-01	1.7015762E-03	1.4999967E-01
0.76	1.0000000E-01	2.4182676E-03	1.4999983E-01
0.77	1.0000000E-01	3.3653285E-03	1.4999991E-01
0.78	1.0000000E-01	4.5900604E-03	1.4999996E-01
0.79	1.0000000E-01	6.1414554E-03	1.4999998E-01
0.8	1.0000000E-01	8.0682354E-03	1.4999999E-01
0.81	1.0000000E-01	1.0416730E-02	1.4999999E-01
0.82	1.0000000E-01	1.3228763E-02	1.5000000E-01
0.83	1.0000000E-01	1.6539699E-02	1.5000000E-01
0.84	1.0000000E-01	2.0376770E-02	1.5000000E-01
0.85	1.0000000E-01	2.4757737E-02	1.5000000E-01
0.86	1.0000000E-01	2.9689887E-02	1.5000000E-01
0.87	1.0000000E-01	3.5169343E-02	1.5000000E-01
0.88	1.0000000E-01	4.1180629E-02	1.5000000E-01
0.89	1.0000000E-01	4.7696448E-02	1.5000000E-01
0.9	1.0000000E-01	5.4677676E-02	1.5000000E-01
0.91	1.0000000E-01	6.2073608E-02	1.5000000E-01
0.92	1.0000000E-01	6.9822523E-02	1.5000000E-01
0.93	1.0000000E-01	7.7852658E-02	1.5000000E-01
0.94	1.0000000E-01	8.6083678E-02	1.5000000E-01
0.95	1.0000000E-01	9.4428679E-02	1.5000000E-01
0.96	1.0000000E-01	1.0279671E-01	1.5000000E-01
0.97	1.0000000E-01	1.1109571E-01	1.5000000E-01
0.98	1.0000000E-01	1.1923569E-01	1.5000000E-01
0.99	1.0000000E-01	1.2713193E-01	1.5000000E-01
1	1.0000000E-01	1.3470801E-01	1.5000000E-01
1.01	1.0000000E-01	1.4189823E-01	1.5000000E-01
1.02	1.0000000E-01	1.4864957E-01	1.5000000E-01
1.03	1.0000000E-01	1.5492270E-01	1.5000000E-01
1.04	1.0000000E-01	1.6069232E-01	1.5000000E-01
1.05	1.0000000E-01	1.6594661E-01	1.5000000E-01
1.06	1.0000000E-01	1.7068620E-01	1.5000000E-01
1.07	1.0000000E-01	1.7492252E-01	1.5000000E-01
1.08	1.0000000E-01	1.7867594E-01	1.5000000E-01
1.09	1.0000000E-01	1.8197375E-01	1.5000000E-01
1.1	1.0000000E-01	1.8484818E-01	1.5000000E-01
1.11	1.0000000E-01	1.8733458E-01	1.5000000E-01
1.12	1.0000000E-01	1.8946974E-01	1.5000000E-01
1.13	1.0000000E-01	1.9129063E-01	1.5000000E-01
1.14	1.0000000E-01	1.9283323E-01	1.5000000E-01
1.15	1.0000000E-01	1.9413182E-01	1.5000000E-01
1.16	1.0000000E-01	1.9521834E-01	1.5000000E-01
1.17	1.0000000E-01	1.9612212E-01	1.5000000E-01
1.18	1.0000000E-01	1.9686964E-01	1.5000000E-01
1.19	1.0000000E-01	1.9748454E-01	1.5000000E-01
1.2	1.0000000E-01	1.9798767E-01	1.5000000E-01
1.21	1.0000000E-01	1.9839721E-01	1.5000000E-01
1.22	1.0000000E-01	1.9872889E-01	1.5000000E-01
1.23	1.0000000E-01	1.9899621E-01	1.5000000E-01
1.24	1.0000000E-01	1.9921060E-01	1.5000000E-01
1.25	1.0000000E-01	1.9938175E-01	1.5000000E-01
1.26	1.0000000E-01	1.9951774E-01	1.5000000E-01
1.27	1.0000000E-01	1.9962531E-01	1.5000000E-01
1.28	1.0000000E-01	1.9971003E-01	1.5000000E-01
1.29	1.0000000E-01	1.9977645E-01	1.5000000E-01
1.3	1.0000000E-01	1.9982830E-01	1.5000000E-01
1.31	1.0000000E-01	1.9986862E-01	1.5000000E-01
1.32	1.0000000E-01	1.9989983E-01	1.5000000E-01
1.33	1.0000000E-01	1.9992391E-01	1.5000000E-01
1.34	1.0000000E-01	1.9994240E-01	1.5000000E-01
1.35	1.0000000E-01	1.9995654E-01	1.5000000E-01
1.36	1.0000000E-01	1.9996733E-01	1.5000000E-01
1.37	1.0000000E-01	1.9997552E-01	1.5000000E-01
1.38	1.0000000E-01	1.9998171E-01	1.5000000E-01
1.39	1.0000000E-01	1.9998639E-01	1.5000000E-01
1.4	1.0000000E-01	1.9998990E-01	1.5000000E-01
1.41	1.0000000E-01	1.9999253E-01	1.5000000E-01
1.42	1.0000000E-01	1.9999449E-01	1.5000000E-01
1.43	1.0000000E-01	1.9999595E-01	1.5000000E-01
1.44	1.0000000E-01	1.9999703E-01	1.5000000E-01
1.45	1.0000000E-01	1.9999783E-01	1.5000000E-01
1.46	1.0000000E-01	1.9999841E-01	1.5000000E-01
1.47	1.0000000E-01	1.9999885E-01	1.5000000E-01
1.48	1.0000000E-01	1.9999916E-01	1.5000000E-01
1.49	1.0000000E-01	1.9999940E-01	1.5000000E-01
1.5	1.0000000E-01	1.9999956E-01	1.5000000E-01
1.51	1.0000000E-01	1.9999969E-01	1.5000000E-01
1.52	1.0000000E-01	1.9999977E-01	1.5000000E-01
1.53	1.0000000E-01	1.9999984E-01	1.5000000E-01
1.54	1.0000000E-01	1.9999988E-01	1.5000000E-01
1.55	1.0000000E-01	1.9999992E-01	1.5000000E-01
1.56	1.0000000E-01	1.9999994E-01	1.5000000E-01
1.57	1.0000000E-01	1.9999996E-01	1.5000000E-01
1.58	1.0000000E-01	1.9999997E-01	1.5000000E-01
1.59	1.0000000E-01	1.9999998E-01	1.5000000E-01
1.6	1.0000000E-01	1.9999999E-01	1.5000000E-01
1.61	1.0000000E-01	1.9999999E-01	1.5000000E-01
1.62	1.0000000E-01	1.9999999E-01	1.5000000E-01
1.63	1.0000000E-01	1.9999999E-01	1.5000000E-01
1.64	1.0000000E-01	2.0000000E-01	1.5000000E-01
1.65	1.0000000E-01	2.0000000E-01	1.5000000E-01
1.66	1.0000000E-01	2.0000000E-01	1.5000000E-01
1.67	1.0000000E-01	2.0000000E-01	1.5000000E-01
1.68	1.0000000E-01	2.0000000E-01	1.5000000E-01
1.69	1.0000000E-01	2.0000000E-01	1.5000000E-01
