title = "dataset retardation"
variables = "x", "y", "z", "K_xx", "K_yy", "K_zz"
zone t = "K - initial [m/s]", i = 2001, j =    1, k =    1,  f=point
  0.0000000E+00  0.0000000E+00  0.0000000E+00  0.1000000E-03  0.0000000E+00  0.0000000E+00
  0.5000000E-01  0.0000000E+00  0.0000000E+00  0.1000000E-03  0.0000000E+00  0.0000000E+00
  0.1000000E+00  0.0000000E+00  0.0000000E+00  0.1000000E-03  0.0000000E+00  0.0000000E+00
  0.1500000E+00  0.0000000E+00  0.0000000E+00  0.1000000E-03  0.0000000E+00  0.0000000E+00
  0.2000000E+00  0.0000000E+00  0.0000000E+00  0.1000000E-03  0.0000000E+00  0.0000000E+00
  0.2500000E+00  0.0000000E+00  0.0000000E+00  0.1000000E-03  0.0000000E+00  0.0000000E+00
  0.3000000E+00  0.0000000E+00  0.0000000E+00  0.1000000E-03  0.0000000E+00  0.0000000E+00
  0.3500000E+00  0.0000000E+00  0.0000000E+00  0.1000000E-03  0.0000000E+00  0.0000000E+00
  0.4000000E+00  0.0000000E+00  0.0000000E+00  0.1000000E-03  0.0000000E+00  0.0000000E+00
  0.4500000E+00  0.0000000E+00  0.0000000E+00  0.1000000E-03  0.0000000E+00  0.0000000E+00
  0.5000000E+00  0.0000000E+00  0.0000000E+00  0.1000000E-03  0.0000000E+00  0.0000000E+00
  0.5500000E+00  0.0000000E+00  0.0000000E+00  0.1000000E-03  0.0000000E+00  0.0000000E+00
  0.6000000E+00  0.0000000E+00  0.0000000E+00  0.1000000E-03  0.0000000E+00  0.0000000E+00
  0.6500000E+00  0.0000000E+00  0.0000000E+00  0.1000000E-03  0.0000000E+00  0.0000000E+00
  0.7000000E+00  0.0000000E+00  0.0000000E+00  0.1000000E-03  0.0000000E+00  0.0000000E+00
  0.7500000E+00  0.0000000E+00  0.0000000E+00  0.1000000E-03  0.0000000E+00  0.0000000E+00
  0.8000000E+00  0.0000000E+00  0.0000000E+00  0.1000000E-03  0.0000000E+00  0.0000000E+00
  0.8500000E+00  0.0000000E+00  0.0000000E+00  0.1000000E-03  0.0000000E+00  0.0000000E+00
  0.9000000E+00  0.0000000E+00  0.0000000E+00  0.1000000E-03  0.0000000E+00  0.0000000E+00
  0.9500000E+00  0.0000000E+00  0.0000000E+00  0.1000000E-03  0.0000000E+00  0.0000000E+00
  0.1000000E+01  0.0000000E+00  0.0000000E+00  0.1000000E-03  0.0000000E+00  0.0000000E+00
  0.1050000E+01  0.0000000E+00  0.0000000E+00  0.1000000E-03  0.0000000E+00  0.0000000E+00
  0.1100000E+01  0.0000000E+00  0.0000000E+00  0.1000000E-03  0.0000000E+00  0.0000000E+00
  0.1150000E+01  0.0000000E+00  0.0000000E+00  0.1000000E-03  0.0000000E+00  0.0000000E+00
  0.1200000E+01  0.0000000E+00  0.0000000E+00  0.1000000E-03  0.0000000E+00  0.0000000E+00
  0.1250000E+01  0.0000000E+00  0.0000000E+00  0.1000000E-03  0.0000000E+00  0.0000000E+00
  0.1300000E+01  0.0000000E+00  0.0000000E+00  0.1000000E-03  0.0000000E+00  0.0000000E+00
  0.1350000E+01  0.0000000E+00  0.0000000E+00  0.1000000E-03  0.0000000E+00  0.0000000E+00
  0.1400000E+01  0.0000000E+00  0.0000000E+00  0.1000000E-03  0.0000000E+00  0.0000000E+00
  0.1450000E+01  0.0000000E+00  0.0000000E+00  0.1000000E-03  0.0000000E+00  0.0000000E+00
  0.1500000E+01  0.0000000E+00  0.0000000E+00  0.1000000E-03  0.0000000E+00  0.0000000E+00
  0.1550000E+01  0.0000000E+00  0.0000000E+00  0.1000000E-03  0.0000000E+00  0.0000000E+00
  0.1600000E+01  0.0000000E+00  0.0000000E+00  0.1000000E-03  0.0000000E+00  0.0000000E+00
  0.1650000E+01  0.0000000E+00  0.0000000E+00  0.1000000E-03  0.0000000E+00  0.0000000E+00
  0.1700000E+01  0.0000000E+00  0.0000000E+00  0.1000000E-03  0.0000000E+00  0.0000000E+00
  0.1750000E+01  0.0000000E+00  0.0000000E+00  0.1000000E-03  0.0000000E+00  0.0000000E+00
  0.1800000E+01  0.0000000E+00  0.0000000E+00  0.1000000E-03  0.0000000E+00  0.0000000E+00
  0.1850000E+01  0.0000000E+00  0.0000000E+00  0.1000000E-03  0.0000000E+00  0.0000000E+00
  0.1900000E+01  0.0000000E+00  0.0000000E+00  0.1000000E-03  0.0000000E+00  0.0000000E+00
  0.1950000E+01  0.0000000E+00  0.0000000E+00  0.1000000E-03  0.0000000E+00  0.0000000E+00
  0.2000000E+01  0.0000000E+00  0.0000000E+00  0.1000000E-03  0.0000000E+00  0.0000000E+00
  0.2050000E+01  0.0000000E+00  0.0000000E+00  0.1000000E-03  0.0000000E+00  0.0000000E+00
  0.2100000E+01  0.0000000E+00  0.0000000E+00  0.1000000E-03  0.0000000E+00  0.0000000E+00
  0.2150000E+01  0.0000000E+00  0.0000000E+00  0.1000000E-03  0.0000000E+00  0.0000000E+00
  0.2200000E+01  0.0000000E+00  0.0000000E+00  0.1000000E-03  0.0000000E+00  0.0000000E+00
  0.2250000E+01  0.0000000E+00  0.0000000E+00  0.1000000E-03  0.0000000E+00  0.0000000E+00
  0.2300000E+01  0.0000000E+00  0.0000000E+00  0.1000000E-03  0.0000000E+00  0.0000000E+00
  0.2350000E+01  0.0000000E+00  0.0000000E+00  0.1000000E-03  0.0000000E+00  0.0000000E+00
  0.2400000E+01  0.0000000E+00  0.0000000E+00  0.1000000E-03  0.0000000E+00  0.0000000E+00
  0.2450000E+01  0.0000000E+00  0.0000000E+00  0.1000000E-03  0.0000000E+00  0.0000000E+00
  0.2500000E+01  0.0000000E+00  0.0000000E+00  0.1000000E-03  0.0000000E+00  0.0000000E+00
  0.2550000E+01  0.0000000E+00  0.0000000E+00  0.1000000E-03  0.0000000E+00  0.0000000E+00
  0.2600000E+01  0.0000000E+00  0.0000000E+00  0.1000000E-03  0.0000000E+00  0.0000000E+00
  0.2650000E+01  0.0000000E+00  0.0000000E+00  0.1000000E-03  0.0000000E+00  0.0000000E+00
  0.2700000E+01  0.0000000E+00  0.0000000E+00  0.1000000E-03  0.0000000E+00  0.0000000E+00
  0.2750000E+01  0.0000000E+00  0.0000000E+00  0.1000000E-03  0.0000000E+00  0.0000000E+00
  0.2800000E+01  0.0000000E+00  0.0000000E+00  0.1000000E-03  0.0000000E+00  0.0000000E+00
  0.2850000E+01  0.0000000E+00  0.0000000E+00  0.1000000E-03  0.0000000E+00  0.0000000E+00
  0.2900000E+01  0.0000000E+00  0.0000000E+00  0.1000000E-03  0.0000000E+00  0.0000000E+00
  0.2950000E+01  0.0000000E+00  0.0000000E+00  0.1000000E-03  0.0000000E+00  0.0000000E+00
  0.3000000E+01  0.0000000E+00  0.0000000E+00  0.1000000E-03  0.0000000E+00  0.0000000E+00
  0.3050000E+01  0.0000000E+00  0.0000000E+00  0.1000000E-03  0.0000000E+00  0.0000000E+00
  0.3100000E+01  0.0000000E+00  0.0000000E+00  0.1000000E-03  0.0000000E+00  0.0000000E+00
  0.3150000E+01  0.0000000E+00  0.0000000E+00  0.1000000E-03  0.0000000E+00  0.0000000E+00
  0.3200000E+01  0.0000000E+00  0.0000000E+00  0.1000000E-03  0.0000000E+00  0.0000000E+00
  0.3250000E+01  0.0000000E+00  0.0000000E+00  0.1000000E-03  0.0000000E+00  0.0000000E+00
  0.3300000E+01  0.0000000E+00  0.0000000E+00  0.1000000E-03  0.0000000E+00  0.0000000E+00
  0.3350000E+01  0.0000000E+00  0.0000000E+00  0.1000000E-03  0.0000000E+00  0.0000000E+00
  0.3400000E+01  0.0000000E+00  0.0000000E+00  0.1000000E-03  0.0000000E+00  0.0000000E+00
  0.3450000E+01  0.0000000E+00  0.0000000E+00  0.1000000E-03  0.0000000E+00  0.0000000E+00
  0.3500000E+01  0.0000000E+00  0.0000000E+00  0.1000000E-03  0.0000000E+00  0.0000000E+00
  0.3550000E+01  0.0000000E+00  0.0000000E+00  0.1000000E-03  0.0000000E+00  0.0000000E+00
  0.3600000E+01  0.0000000E+00  0.0000000E+00  0.1000000E-03  0.0000000E+00  0.0000000E+00
  0.3650000E+01  0.0000000E+00  0.0000000E+00  0.1000000E-03  0.0000000E+00  0.0000000E+00
  0.3700000E+01  0.0000000E+00  0.0000000E+00  0.1000000E-03  0.0000000E+00  0.0000000E+00
  0.3750000E+01  0.0000000E+00  0.0000000E+00  0.1000000E-03  0.0000000E+00  0.0000000E+00
  0.3800000E+01  0.0000000E+00  0.0000000E+00  0.1000000E-03  0.0000000E+00  0.0000000E+00
  0.3850000E+01  0.0000000E+00  0.0000000E+00  0.1000000E-03  0.0000000E+00  0.0000000E+00
  0.3900000E+01  0.0000000E+00  0.0000000E+00  0.1000000E-03  0.0000000E+00  0.0000000E+00
  0.3950000E+01  0.0000000E+00  0.0000000E+00  0.1000000E-03  0.0000000E+00  0.0000000E+00
  0.4000000E+01  0.0000000E+00  0.0000000E+00  0.1000000E-03  0.0000000E+00  0.0000000E+00
  0.4050000E+01  0.0000000E+00  0.0000000E+00  0.1000000E-03  0.0000000E+00  0.0000000E+00
  0.4100000E+01  0.0000000E+00  0.0000000E+00  0.1000000E-03  0.0000000E+00  0.0000000E+00
  0.4150000E+01  0.0000000E+00  0.0000000E+00  0.1000000E-03  0.0000000E+00  0.0000000E+00
  0.4200000E+01  0.0000000E+00  0.0000000E+00  0.1000000E-03  0.0000000E+00  0.0000000E+00
  0.4250000E+01  0.0000000E+00  0.0000000E+00  0.1000000E-03  0.0000000E+00  0.0000000E+00
  0.4300000E+01  0.0000000E+00  0.0000000E+00  0.1000000E-03  0.0000000E+00  0.0000000E+00
  0.4350000E+01  0.0000000E+00  0.0000000E+00  0.1000000E-03  0.0000000E+00  0.0000000E+00
  0.4400000E+01  0.0000000E+00  0.0000000E+00  0.1000000E-03  0.0000000E+00  0.0000000E+00
  0.4450000E+01  0.0000000E+00  0.0000000E+00  0.1000000E-03  0.0000000E+00  0.0000000E+00
  0.4500000E+01  0.0000000E+00  0.0000000E+00  0.1000000E-03  0.0000000E+00  0.0000000E+00
  0.4550000E+01  0.0000000E+00  0.0000000E+00  0.1000000E-03  0.0000000E+00  0.0000000E+00
  0.4600000E+01  0.0000000E+00  0.0000000E+00  0.1000000E-03  0.0000000E+00  0.0000000E+00
  0.4650000E+01  0.0000000E+00  0.0000000E+00  0.1000000E-03  0.0000000E+00  0.0000000E+00
  0.4700000E+01  0.0000000E+00  0.0000000E+00  0.1000000E-03  0.0000000E+00  0.0000000E+00
  0.4750000E+01  0.0000000E+00  0.0000000E+00  0.1000000E-03  0.0000000E+00  0.0000000E+00
  0.4800000E+01  0.0000000E+00  0.0000000E+00  0.1000000E-03  0.0000000E+00  0.0000000E+00
  0.4850000E+01  0.0000000E+00  0.0000000E+00  0.1000000E-03  0.0000000E+00  0.0000000E+00
  0.4900000E+01  0.0000000E+00  0.0000000E+00  0.1000000E-03  0.0000000E+00  0.0000000E+00
  0.4950000E+01  0.0000000E+00  0.0000000E+00  0.1000000E-03  0.0000000E+00  0.0000000E+00
  0.5000000E+01  0.0000000E+00  0.0000000E+00  0.1000000E-03  0.0000000E+00  0.0000000E+00
  0.5050000E+01  0.0000000E+00  0.0000000E+00  0.1000000E-03  0.0000000E+00  0.0000000E+00
  0.5100000E+01  0.0000000E+00  0.0000000E+00  0.1000000E-03  0.0000000E+00  0.0000000E+00
  0.5150000E+01  0.0000000E+00  0.0000000E+00  0.1000000E-03  0.0000000E+00  0.0000000E+00
  0.5200000E+01  0.0000000E+00  0.0000000E+00  0.1000000E-03  0.0000000E+00  0.0000000E+00
  0.5250000E+01  0.0000000E+00  0.0000000E+00  0.1000000E-03  0.0000000E+00  0.0000000E+00
  0.5300000E+01  0.0000000E+00  0.0000000E+00  0.1000000E-03  0.0000000E+00  0.0000000E+00
  0.5350000E+01  0.0000000E+00  0.0000000E+00  0.1000000E-03  0.0000000E+00  0.0000000E+00
  0.5400000E+01  0.0000000E+00  0.0000000E+00  0.1000000E-03  0.0000000E+00  0.0000000E+00
  0.5450000E+01  0.0000000E+00  0.0000000E+00  0.1000000E-03  0.0000000E+00  0.0000000E+00
  0.5500000E+01  0.0000000E+00  0.0000000E+00  0.1000000E-03  0.0000000E+00  0.0000000E+00
  0.5550000E+01  0.0000000E+00  0.0000000E+00  0.1000000E-03  0.0000000E+00  0.0000000E+00
  0.5600000E+01  0.0000000E+00  0.0000000E+00  0.1000000E-03  0.0000000E+00  0.0000000E+00
  0.5650000E+01  0.0000000E+00  0.0000000E+00  0.1000000E-03  0.0000000E+00  0.0000000E+00
  0.5700000E+01  0.0000000E+00  0.0000000E+00  0.1000000E-03  0.0000000E+00  0.0000000E+00
  0.5750000E+01  0.0000000E+00  0.0000000E+00  0.1000000E-03  0.0000000E+00  0.0000000E+00
  0.5800000E+01  0.0000000E+00  0.0000000E+00  0.1000000E-03  0.0000000E+00  0.0000000E+00
  0.5850000E+01  0.0000000E+00  0.0000000E+00  0.1000000E-03  0.0000000E+00  0.0000000E+00
  0.5900000E+01  0.0000000E+00  0.0000000E+00  0.1000000E-03  0.0000000E+00  0.0000000E+00
  0.5950000E+01  0.0000000E+00  0.0000000E+00  0.1000000E-03  0.0000000E+00  0.0000000E+00
  0.6000000E+01  0.0000000E+00  0.0000000E+00  0.1000000E-03  0.0000000E+00  0.0000000E+00
  0.6050000E+01  0.0000000E+00  0.0000000E+00  0.1000000E-03  0.0000000E+00  0.0000000E+00
  0.6100000E+01  0.0000000E+00  0.0000000E+00  0.1000000E-03  0.0000000E+00  0.0000000E+00
  0.6150000E+01  0.0000000E+00  0.0000000E+00  0.1000000E-03  0.0000000E+00  0.0000000E+00
  0.6200000E+01  0.0000000E+00  0.0000000E+00  0.1000000E-03  0.0000000E+00  0.0000000E+00
  0.6250000E+01  0.0000000E+00  0.0000000E+00  0.1000000E-03  0.0000000E+00  0.0000000E+00
  0.6300000E+01  0.0000000E+00  0.0000000E+00  0.1000000E-03  0.0000000E+00  0.0000000E+00
  0.6350000E+01  0.0000000E+00  0.0000000E+00  0.1000000E-03  0.0000000E+00  0.0000000E+00
  0.6400000E+01  0.0000000E+00  0.0000000E+00  0.1000000E-03  0.0000000E+00  0.0000000E+00
  0.6450000E+01  0.0000000E+00  0.0000000E+00  0.1000000E-03  0.0000000E+00  0.0000000E+00
  0.6500000E+01  0.0000000E+00  0.0000000E+00  0.1000000E-03  0.0000000E+00  0.0000000E+00
  0.6550000E+01  0.0000000E+00  0.0000000E+00  0.1000000E-03  0.0000000E+00  0.0000000E+00
  0.6600000E+01  0.0000000E+00  0.0000000E+00  0.1000000E-03  0.0000000E+00  0.0000000E+00
  0.6650000E+01  0.0000000E+00  0.0000000E+00  0.1000000E-03  0.0000000E+00  0.0000000E+00
  0.6700000E+01  0.0000000E+00  0.0000000E+00  0.1000000E-03  0.0000000E+00  0.0000000E+00
  0.6750000E+01  0.0000000E+00  0.0000000E+00  0.1000000E-03  0.0000000E+00  0.0000000E+00
  0.6800000E+01  0.0000000E+00  0.0000000E+00  0.1000000E-03  0.0000000E+00  0.0000000E+00
  0.6850000E+01  0.0000000E+00  0.0000000E+00  0.1000000E-03  0.0000000E+00  0.0000000E+00
  0.6900000E+01  0.0000000E+00  0.0000000E+00  0.1000000E-03  0.0000000E+00  0.0000000E+00
  0.6950000E+01  0.0000000E+00  0.0000000E+00  0.1000000E-03  0.0000000E+00  0.0000000E+00
  0.7000000E+01  0.0000000E+00  0.0000000E+00  0.1000000E-03  0.0000000E+00  0.0000000E+00
  0.7050000E+01  0.0000000E+00  0.0000000E+00  0.1000000E-03  0.0000000E+00  0.0000000E+00
  0.7100000E+01  0.0000000E+00  0.0000000E+00  0.1000000E-03  0.0000000E+00  0.0000000E+00
  0.7150000E+01  0.0000000E+00  0.0000000E+00  0.1000000E-03  0.0000000E+00  0.0000000E+00
  0.7200000E+01  0.0000000E+00  0.0000000E+00  0.1000000E-03  0.0000000E+00  0.0000000E+00
  0.7250000E+01  0.0000000E+00  0.0000000E+00  0.1000000E-03  0.0000000E+00  0.0000000E+00
  0.7300000E+01  0.0000000E+00  0.0000000E+00  0.1000000E-03  0.0000000E+00  0.0000000E+00
  0.7350000E+01  0.0000000E+00  0.0000000E+00  0.1000000E-03  0.0000000E+00  0.0000000E+00
  0.7400000E+01  0.0000000E+00  0.0000000E+00  0.1000000E-03  0.0000000E+00  0.0000000E+00
  0.7450000E+01  0.0000000E+00  0.0000000E+00  0.1000000E-03  0.0000000E+00  0.0000000E+00
  0.7500000E+01  0.0000000E+00  0.0000000E+00  0.1000000E-03  0.0000000E+00  0.0000000E+00
  0.7550000E+01  0.0000000E+00  0.0000000E+00  0.1000000E-03  0.0000000E+00  0.0000000E+00
  0.7600000E+01  0.0000000E+00  0.0000000E+00  0.1000000E-03  0.0000000E+00  0.0000000E+00
  0.7650000E+01  0.0000000E+00  0.0000000E+00  0.1000000E-03  0.0000000E+00  0.0000000E+00
  0.7700000E+01  0.0000000E+00  0.0000000E+00  0.1000000E-03  0.0000000E+00  0.0000000E+00
  0.7750000E+01  0.0000000E+00  0.0000000E+00  0.1000000E-03  0.0000000E+00  0.0000000E+00
  0.7800000E+01  0.0000000E+00  0.0000000E+00  0.1000000E-03  0.0000000E+00  0.0000000E+00
  0.7850000E+01  0.0000000E+00  0.0000000E+00  0.1000000E-03  0.0000000E+00  0.0000000E+00
  0.7900000E+01  0.0000000E+00  0.0000000E+00  0.1000000E-03  0.0000000E+00  0.0000000E+00
  0.7950000E+01  0.0000000E+00  0.0000000E+00  0.1000000E-03  0.0000000E+00  0.0000000E+00
  0.8000000E+01  0.0000000E+00  0.0000000E+00  0.1000000E-03  0.0000000E+00  0.0000000E+00
  0.8050000E+01  0.0000000E+00  0.0000000E+00  0.1000000E-03  0.0000000E+00  0.0000000E+00
  0.8100000E+01  0.0000000E+00  0.0000000E+00  0.1000000E-03  0.0000000E+00  0.0000000E+00
  0.8150000E+01  0.0000000E+00  0.0000000E+00  0.1000000E-03  0.0000000E+00  0.0000000E+00
  0.8200000E+01  0.0000000E+00  0.0000000E+00  0.1000000E-03  0.0000000E+00  0.0000000E+00
  0.8250000E+01  0.0000000E+00  0.0000000E+00  0.1000000E-03  0.0000000E+00  0.0000000E+00
  0.8300000E+01  0.0000000E+00  0.0000000E+00  0.1000000E-03  0.0000000E+00  0.0000000E+00
  0.8350000E+01  0.0000000E+00  0.0000000E+00  0.1000000E-03  0.0000000E+00  0.0000000E+00
  0.8400000E+01  0.0000000E+00  0.0000000E+00  0.1000000E-03  0.0000000E+00  0.0000000E+00
  0.8450000E+01  0.0000000E+00  0.0000000E+00  0.1000000E-03  0.0000000E+00  0.0000000E+00
  0.8500000E+01  0.0000000E+00  0.0000000E+00  0.1000000E-03  0.0000000E+00  0.0000000E+00
  0.8550000E+01  0.0000000E+00  0.0000000E+00  0.1000000E-03  0.0000000E+00  0.0000000E+00
  0.8600000E+01  0.0000000E+00  0.0000000E+00  0.1000000E-03  0.0000000E+00  0.0000000E+00
  0.8650000E+01  0.0000000E+00  0.0000000E+00  0.1000000E-03  0.0000000E+00  0.0000000E+00
  0.8700000E+01  0.0000000E+00  0.0000000E+00  0.1000000E-03  0.0000000E+00  0.0000000E+00
  0.8750000E+01  0.0000000E+00  0.0000000E+00  0.1000000E-03  0.0000000E+00  0.0000000E+00
  0.8800000E+01  0.0000000E+00  0.0000000E+00  0.1000000E-03  0.0000000E+00  0.0000000E+00
  0.8850000E+01  0.0000000E+00  0.0000000E+00  0.1000000E-03  0.0000000E+00  0.0000000E+00
  0.8900000E+01  0.0000000E+00  0.0000000E+00  0.1000000E-03  0.0000000E+00  0.0000000E+00
  0.8950000E+01  0.0000000E+00  0.0000000E+00  0.1000000E-03  0.0000000E+00  0.0000000E+00
  0.9000000E+01  0.0000000E+00  0.0000000E+00  0.1000000E-03  0.0000000E+00  0.0000000E+00
  0.9050000E+01  0.0000000E+00  0.0000000E+00  0.1000000E-03  0.0000000E+00  0.0000000E+00
  0.9100000E+01  0.0000000E+00  0.0000000E+00  0.1000000E-03  0.0000000E+00  0.0000000E+00
  0.9150000E+01  0.0000000E+00  0.0000000E+00  0.1000000E-03  0.0000000E+00  0.0000000E+00
  0.9200000E+01  0.0000000E+00  0.0000000E+00  0.1000000E-03  0.0000000E+00  0.0000000E+00
  0.9250000E+01  0.0000000E+00  0.0000000E+00  0.1000000E-03  0.0000000E+00  0.0000000E+00
  0.9300000E+01  0.0000000E+00  0.0000000E+00  0.1000000E-03  0.0000000E+00  0.0000000E+00
  0.9350000E+01  0.0000000E+00  0.0000000E+00  0.1000000E-03  0.0000000E+00  0.0000000E+00
  0.9400000E+01  0.0000000E+00  0.0000000E+00  0.1000000E-03  0.0000000E+00  0.0000000E+00
  0.9450000E+01  0.0000000E+00  0.0000000E+00  0.1000000E-03  0.0000000E+00  0.0000000E+00
  0.9500000E+01  0.0000000E+00  0.0000000E+00  0.1000000E-03  0.0000000E+00  0.0000000E+00
  0.9550000E+01  0.0000000E+00  0.0000000E+00  0.1000000E-03  0.0000000E+00  0.0000000E+00
  0.9600000E+01  0.0000000E+00  0.0000000E+00  0.1000000E-03  0.0000000E+00  0.0000000E+00
  0.9650000E+01  0.0000000E+00  0.0000000E+00  0.1000000E-03  0.0000000E+00  0.0000000E+00
  0.9700000E+01  0.0000000E+00  0.0000000E+00  0.1000000E-03  0.0000000E+00  0.0000000E+00
  0.9750000E+01  0.0000000E+00  0.0000000E+00  0.1000000E-03  0.0000000E+00  0.0000000E+00
  0.9800000E+01  0.0000000E+00  0.0000000E+00  0.1000000E-03  0.0000000E+00  0.0000000E+00
  0.9850000E+01  0.0000000E+00  0.0000000E+00  0.1000000E-03  0.0000000E+00  0.0000000E+00
  0.9900000E+01  0.0000000E+00  0.0000000E+00  0.1000000E-03  0.0000000E+00  0.0000000E+00
  0.9950000E+01  0.0000000E+00  0.0000000E+00  0.1000000E-03  0.0000000E+00  0.0000000E+00
  0.1000000E+02  0.0000000E+00  0.0000000E+00  0.1000000E-03  0.0000000E+00  0.0000000E+00
  0.1005000E+02  0.0000000E+00  0.0000000E+00  0.1000000E-03  0.0000000E+00  0.0000000E+00
  0.1010000E+02  0.0000000E+00  0.0000000E+00  0.1000000E-03  0.0000000E+00  0.0000000E+00
  0.1015000E+02  0.0000000E+00  0.0000000E+00  0.1000000E-03  0.0000000E+00  0.0000000E+00
  0.1020000E+02  0.0000000E+00  0.0000000E+00  0.1000000E-03  0.0000000E+00  0.0000000E+00
  0.1025000E+02  0.0000000E+00  0.0000000E+00  0.1000000E-03  0.0000000E+00  0.0000000E+00
  0.1030000E+02  0.0000000E+00  0.0000000E+00  0.1000000E-03  0.0000000E+00  0.0000000E+00
  0.1035000E+02  0.0000000E+00  0.0000000E+00  0.1000000E-03  0.0000000E+00  0.0000000E+00
  0.1040000E+02  0.0000000E+00  0.0000000E+00  0.1000000E-03  0.0000000E+00  0.0000000E+00
  0.1045000E+02  0.0000000E+00  0.0000000E+00  0.1000000E-03  0.0000000E+00  0.0000000E+00
  0.1050000E+02  0.0000000E+00  0.0000000E+00  0.1000000E-03  0.0000000E+00  0.0000000E+00
  0.1055000E+02  0.0000000E+00  0.0000000E+00  0.1000000E-03  0.0000000E+00  0.0000000E+00
  0.1060000E+02  0.0000000E+00  0.0000000E+00  0.1000000E-03  0.0000000E+00  0.0000000E+00
  0.1065000E+02  0.0000000E+00  0.0000000E+00  0.1000000E-03  0.0000000E+00  0.0000000E+00
  0.1070000E+02  0.0000000E+00  0.0000000E+00  0.1000000E-03  0.0000000E+00  0.0000000E+00
  0.1075000E+02  0.0000000E+00  0.0000000E+00  0.1000000E-03  0.0000000E+00  0.0000000E+00
  0.1080000E+02  0.0000000E+00  0.0000000E+00  0.1000000E-03  0.0000000E+00  0.0000000E+00
  0.1085000E+02  0.0000000E+00  0.0000000E+00  0.1000000E-03  0.0000000E+00  0.0000000E+00
  0.1090000E+02  0.0000000E+00  0.0000000E+00  0.1000000E-03  0.0000000E+00  0.0000000E+00
  0.1095000E+02  0.0000000E+00  0.0000000E+00  0.1000000E-03  0.0000000E+00  0.0000000E+00
  0.1100000E+02  0.0000000E+00  0.0000000E+00  0.1000000E-03  0.0000000E+00  0.0000000E+00
  0.1105000E+02  0.0000000E+00  0.0000000E+00  0.1000000E-03  0.0000000E+00  0.0000000E+00
  0.1110000E+02  0.0000000E+00  0.0000000E+00  0.1000000E-03  0.0000000E+00  0.0000000E+00
  0.1115000E+02  0.0000000E+00  0.0000000E+00  0.1000000E-03  0.0000000E+00  0.0000000E+00
  0.1120000E+02  0.0000000E+00  0.0000000E+00  0.1000000E-03  0.0000000E+00  0.0000000E+00
  0.1125000E+02  0.0000000E+00  0.0000000E+00  0.1000000E-03  0.0000000E+00  0.0000000E+00
  0.1130000E+02  0.0000000E+00  0.0000000E+00  0.1000000E-03  0.0000000E+00  0.0000000E+00
  0.1135000E+02  0.0000000E+00  0.0000000E+00  0.1000000E-03  0.0000000E+00  0.0000000E+00
  0.1140000E+02  0.0000000E+00  0.0000000E+00  0.1000000E-03  0.0000000E+00  0.0000000E+00
  0.1145000E+02  0.0000000E+00  0.0000000E+00  0.1000000E-03  0.0000000E+00  0.0000000E+00
  0.1150000E+02  0.0000000E+00  0.0000000E+00  0.1000000E-03  0.0000000E+00  0.0000000E+00
  0.1155000E+02  0.0000000E+00  0.0000000E+00  0.1000000E-03  0.0000000E+00  0.0000000E+00
  0.1160000E+02  0.0000000E+00  0.0000000E+00  0.1000000E-03  0.0000000E+00  0.0000000E+00
  0.1165000E+02  0.0000000E+00  0.0000000E+00  0.1000000E-03  0.0000000E+00  0.0000000E+00
  0.1170000E+02  0.0000000E+00  0.0000000E+00  0.1000000E-03  0.0000000E+00  0.0000000E+00
  0.1175000E+02  0.0000000E+00  0.0000000E+00  0.1000000E-03  0.0000000E+00  0.0000000E+00
  0.1180000E+02  0.0000000E+00  0.0000000E+00  0.1000000E-03  0.0000000E+00  0.0000000E+00
  0.1185000E+02  0.0000000E+00  0.0000000E+00  0.1000000E-03  0.0000000E+00  0.0000000E+00
  0.1190000E+02  0.0000000E+00  0.0000000E+00  0.1000000E-03  0.0000000E+00  0.0000000E+00
  0.1195000E+02  0.0000000E+00  0.0000000E+00  0.1000000E-03  0.0000000E+00  0.0000000E+00
  0.1200000E+02  0.0000000E+00  0.0000000E+00  0.1000000E-03  0.0000000E+00  0.0000000E+00
  0.1205000E+02  0.0000000E+00  0.0000000E+00  0.1000000E-03  0.0000000E+00  0.0000000E+00
  0.1210000E+02  0.0000000E+00  0.0000000E+00  0.1000000E-03  0.0000000E+00  0.0000000E+00
  0.1215000E+02  0.0000000E+00  0.0000000E+00  0.1000000E-03  0.0000000E+00  0.0000000E+00
  0.1220000E+02  0.0000000E+00  0.0000000E+00  0.1000000E-03  0.0000000E+00  0.0000000E+00
  0.1225000E+02  0.0000000E+00  0.0000000E+00  0.1000000E-03  0.0000000E+00  0.0000000E+00
  0.1230000E+02  0.0000000E+00  0.0000000E+00  0.1000000E-03  0.0000000E+00  0.0000000E+00
  0.1235000E+02  0.0000000E+00  0.0000000E+00  0.1000000E-03  0.0000000E+00  0.0000000E+00
  0.1240000E+02  0.0000000E+00  0.0000000E+00  0.1000000E-03  0.0000000E+00  0.0000000E+00
  0.1245000E+02  0.0000000E+00  0.0000000E+00  0.1000000E-03  0.0000000E+00  0.0000000E+00
  0.1250000E+02  0.0000000E+00  0.0000000E+00  0.1000000E-03  0.0000000E+00  0.0000000E+00
  0.1255000E+02  0.0000000E+00  0.0000000E+00  0.1000000E-03  0.0000000E+00  0.0000000E+00
  0.1260000E+02  0.0000000E+00  0.0000000E+00  0.1000000E-03  0.0000000E+00  0.0000000E+00
  0.1265000E+02  0.0000000E+00  0.0000000E+00  0.1000000E-03  0.0000000E+00  0.0000000E+00
  0.1270000E+02  0.0000000E+00  0.0000000E+00  0.1000000E-03  0.0000000E+00  0.0000000E+00
  0.1275000E+02  0.0000000E+00  0.0000000E+00  0.1000000E-03  0.0000000E+00  0.0000000E+00
  0.1280000E+02  0.0000000E+00  0.0000000E+00  0.1000000E-03  0.0000000E+00  0.0000000E+00
  0.1285000E+02  0.0000000E+00  0.0000000E+00  0.1000000E-03  0.0000000E+00  0.0000000E+00
  0.1290000E+02  0.0000000E+00  0.0000000E+00  0.1000000E-03  0.0000000E+00  0.0000000E+00
  0.1295000E+02  0.0000000E+00  0.0000000E+00  0.1000000E-03  0.0000000E+00  0.0000000E+00
  0.1300000E+02  0.0000000E+00  0.0000000E+00  0.1000000E-03  0.0000000E+00  0.0000000E+00
  0.1305000E+02  0.0000000E+00  0.0000000E+00  0.1000000E-03  0.0000000E+00  0.0000000E+00
  0.1310000E+02  0.0000000E+00  0.0000000E+00  0.1000000E-03  0.0000000E+00  0.0000000E+00
  0.1315000E+02  0.0000000E+00  0.0000000E+00  0.1000000E-03  0.0000000E+00  0.0000000E+00
  0.1320000E+02  0.0000000E+00  0.0000000E+00  0.1000000E-03  0.0000000E+00  0.0000000E+00
  0.1325000E+02  0.0000000E+00  0.0000000E+00  0.1000000E-03  0.0000000E+00  0.0000000E+00
  0.1330000E+02  0.0000000E+00  0.0000000E+00  0.1000000E-03  0.0000000E+00  0.0000000E+00
  0.1335000E+02  0.0000000E+00  0.0000000E+00  0.1000000E-03  0.0000000E+00  0.0000000E+00
  0.1340000E+02  0.0000000E+00  0.0000000E+00  0.1000000E-03  0.0000000E+00  0.0000000E+00
  0.1345000E+02  0.0000000E+00  0.0000000E+00  0.1000000E-03  0.0000000E+00  0.0000000E+00
  0.1350000E+02  0.0000000E+00  0.0000000E+00  0.1000000E-03  0.0000000E+00  0.0000000E+00
  0.1355000E+02  0.0000000E+00  0.0000000E+00  0.1000000E-03  0.0000000E+00  0.0000000E+00
  0.1360000E+02  0.0000000E+00  0.0000000E+00  0.1000000E-03  0.0000000E+00  0.0000000E+00
  0.1365000E+02  0.0000000E+00  0.0000000E+00  0.1000000E-03  0.0000000E+00  0.0000000E+00
  0.1370000E+02  0.0000000E+00  0.0000000E+00  0.1000000E-03  0.0000000E+00  0.0000000E+00
  0.1375000E+02  0.0000000E+00  0.0000000E+00  0.1000000E-03  0.0000000E+00  0.0000000E+00
  0.1380000E+02  0.0000000E+00  0.0000000E+00  0.1000000E-03  0.0000000E+00  0.0000000E+00
  0.1385000E+02  0.0000000E+00  0.0000000E+00  0.1000000E-03  0.0000000E+00  0.0000000E+00
  0.1390000E+02  0.0000000E+00  0.0000000E+00  0.1000000E-03  0.0000000E+00  0.0000000E+00
  0.1395000E+02  0.0000000E+00  0.0000000E+00  0.1000000E-03  0.0000000E+00  0.0000000E+00
  0.1400000E+02  0.0000000E+00  0.0000000E+00  0.1000000E-03  0.0000000E+00  0.0000000E+00
  0.1405000E+02  0.0000000E+00  0.0000000E+00  0.1000000E-03  0.0000000E+00  0.0000000E+00
  0.1410000E+02  0.0000000E+00  0.0000000E+00  0.1000000E-03  0.0000000E+00  0.0000000E+00
  0.1415000E+02  0.0000000E+00  0.0000000E+00  0.1000000E-03  0.0000000E+00  0.0000000E+00
  0.1420000E+02  0.0000000E+00  0.0000000E+00  0.1000000E-03  0.0000000E+00  0.0000000E+00
  0.1425000E+02  0.0000000E+00  0.0000000E+00  0.1000000E-03  0.0000000E+00  0.0000000E+00
  0.1430000E+02  0.0000000E+00  0.0000000E+00  0.1000000E-03  0.0000000E+00  0.0000000E+00
  0.1435000E+02  0.0000000E+00  0.0000000E+00  0.1000000E-03  0.0000000E+00  0.0000000E+00
  0.1440000E+02  0.0000000E+00  0.0000000E+00  0.1000000E-03  0.0000000E+00  0.0000000E+00
  0.1445000E+02  0.0000000E+00  0.0000000E+00  0.1000000E-03  0.0000000E+00  0.0000000E+00
  0.1450000E+02  0.0000000E+00  0.0000000E+00  0.1000000E-03  0.0000000E+00  0.0000000E+00
  0.1455000E+02  0.0000000E+00  0.0000000E+00  0.1000000E-03  0.0000000E+00  0.0000000E+00
  0.1460000E+02  0.0000000E+00  0.0000000E+00  0.1000000E-03  0.0000000E+00  0.0000000E+00
  0.1465000E+02  0.0000000E+00  0.0000000E+00  0.1000000E-03  0.0000000E+00  0.0000000E+00
  0.1470000E+02  0.0000000E+00  0.0000000E+00  0.1000000E-03  0.0000000E+00  0.0000000E+00
  0.1475000E+02  0.0000000E+00  0.0000000E+00  0.1000000E-03  0.0000000E+00  0.0000000E+00
  0.1480000E+02  0.0000000E+00  0.0000000E+00  0.1000000E-03  0.0000000E+00  0.0000000E+00
  0.1485000E+02  0.0000000E+00  0.0000000E+00  0.1000000E-03  0.0000000E+00  0.0000000E+00
  0.1490000E+02  0.0000000E+00  0.0000000E+00  0.1000000E-03  0.0000000E+00  0.0000000E+00
  0.1495000E+02  0.0000000E+00  0.0000000E+00  0.1000000E-03  0.0000000E+00  0.0000000E+00
  0.1500000E+02  0.0000000E+00  0.0000000E+00  0.1000000E-03  0.0000000E+00  0.0000000E+00
  0.1505000E+02  0.0000000E+00  0.0000000E+00  0.1000000E-03  0.0000000E+00  0.0000000E+00
  0.1510000E+02  0.0000000E+00  0.0000000E+00  0.1000000E-03  0.0000000E+00  0.0000000E+00
  0.1515000E+02  0.0000000E+00  0.0000000E+00  0.1000000E-03  0.0000000E+00  0.0000000E+00
  0.1520000E+02  0.0000000E+00  0.0000000E+00  0.1000000E-03  0.0000000E+00  0.0000000E+00
  0.1525000E+02  0.0000000E+00  0.0000000E+00  0.1000000E-03  0.0000000E+00  0.0000000E+00
  0.1530000E+02  0.0000000E+00  0.0000000E+00  0.1000000E-03  0.0000000E+00  0.0000000E+00
  0.1535000E+02  0.0000000E+00  0.0000000E+00  0.1000000E-03  0.0000000E+00  0.0000000E+00
  0.1540000E+02  0.0000000E+00  0.0000000E+00  0.1000000E-03  0.0000000E+00  0.0000000E+00
  0.1545000E+02  0.0000000E+00  0.0000000E+00  0.1000000E-03  0.0000000E+00  0.0000000E+00
  0.1550000E+02  0.0000000E+00  0.0000000E+00  0.1000000E-03  0.0000000E+00  0.0000000E+00
  0.1555000E+02  0.0000000E+00  0.0000000E+00  0.1000000E-03  0.0000000E+00  0.0000000E+00
  0.1560000E+02  0.0000000E+00  0.0000000E+00  0.1000000E-03  0.0000000E+00  0.0000000E+00
  0.1565000E+02  0.0000000E+00  0.0000000E+00  0.1000000E-03  0.0000000E+00  0.0000000E+00
  0.1570000E+02  0.0000000E+00  0.0000000E+00  0.1000000E-03  0.0000000E+00  0.0000000E+00
  0.1575000E+02  0.0000000E+00  0.0000000E+00  0.1000000E-03  0.0000000E+00  0.0000000E+00
  0.1580000E+02  0.0000000E+00  0.0000000E+00  0.1000000E-03  0.0000000E+00  0.0000000E+00
  0.1585000E+02  0.0000000E+00  0.0000000E+00  0.1000000E-03  0.0000000E+00  0.0000000E+00
  0.1590000E+02  0.0000000E+00  0.0000000E+00  0.1000000E-03  0.0000000E+00  0.0000000E+00
  0.1595000E+02  0.0000000E+00  0.0000000E+00  0.1000000E-03  0.0000000E+00  0.0000000E+00
  0.1600000E+02  0.0000000E+00  0.0000000E+00  0.1000000E-03  0.0000000E+00  0.0000000E+00
  0.1605000E+02  0.0000000E+00  0.0000000E+00  0.1000000E-03  0.0000000E+00  0.0000000E+00
  0.1610000E+02  0.0000000E+00  0.0000000E+00  0.1000000E-03  0.0000000E+00  0.0000000E+00
  0.1615000E+02  0.0000000E+00  0.0000000E+00  0.1000000E-03  0.0000000E+00  0.0000000E+00