title = "dataset surfx"
variables = "time","pH","ionic strength","C-Alk [eq/L]","NC-Alk [eq/L]","Alk [eq/L]","C-Alk [mg/L CaCO_3]","NC-Alk [mg/L CACO_3]",
"Alk [mg/L CaCO_3]","temperature"
zone t = "Master variables, volume =   101", f=point
  0.0000000E+00  0.8108019E+01  0.2063791E-04  0.0000000E+00  0.0000000E+00  0.0000000E+00  0.0000000E+00  0.0000000E+00  0.0000000E+00  0.2500000E+02
  0.2400000E-06  0.8108005E+01  0.2063788E-04  0.0000000E+00  0.0000000E+00  0.0000000E+00  0.0000000E+00  0.0000000E+00  0.0000000E+00  0.2500000E+02
  0.7584593E-06  0.8108000E+01  0.2065139E-04  0.0000000E+00  0.0000000E+00  0.0000000E+00  0.0000000E+00  0.0000000E+00  0.0000000E+00  0.2500000E+02
  0.1728408E-05  0.8108000E+01  0.2065139E-04  0.0000000E+00  0.0000000E+00  0.0000000E+00  0.0000000E+00  0.0000000E+00  0.0000000E+00  0.2500000E+02
  0.3543015E-05  0.8108000E+01  0.2065139E-04  0.0000000E+00  0.0000000E+00  0.0000000E+00  0.0000000E+00  0.0000000E+00  0.0000000E+00  0.2500000E+02
  0.6937835E-05  0.8108000E+01  0.2065139E-04  0.0000000E+00  0.0000000E+00  0.0000000E+00  0.0000000E+00  0.0000000E+00  0.0000000E+00  0.2500000E+02
  0.1328896E-04  0.8108000E+01  0.2065139E-04  0.0000000E+00  0.0000000E+00  0.0000000E+00  0.0000000E+00  0.0000000E+00  0.0000000E+00  0.2500000E+02
  0.2391643E-04  0.8108000E+01  0.2065139E-04  0.0000000E+00  0.0000000E+00  0.0000000E+00  0.0000000E+00  0.0000000E+00  0.0000000E+00  0.2500000E+02
  0.4169958E-04  0.8108000E+01  0.2065139E-04  0.0000000E+00  0.0000000E+00  0.0000000E+00  0.0000000E+00  0.0000000E+00  0.0000000E+00  0.2500000E+02
  0.7145648E-04  0.8108000E+01  0.2065139E-04  0.0000000E+00  0.0000000E+00  0.0000000E+00  0.0000000E+00  0.0000000E+00  0.0000000E+00  0.2500000E+02
  0.1212493E-03  0.8108000E+01  0.2065139E-04  0.0000000E+00  0.0000000E+00  0.0000000E+00  0.0000000E+00  0.0000000E+00  0.0000000E+00  0.2500000E+02
  0.2045686E-03  0.8108000E+01  0.2065139E-04  0.0000000E+00  0.0000000E+00  0.0000000E+00  0.0000000E+00  0.0000000E+00  0.0000000E+00  0.2500000E+02
  0.3439886E-03  0.8108000E+01  0.2065139E-04  0.0000000E+00  0.0000000E+00  0.0000000E+00  0.0000000E+00  0.0000000E+00  0.0000000E+00  0.2500000E+02
  0.5772827E-03  0.8108000E+01  0.2065139E-04  0.0000000E+00  0.0000000E+00  0.0000000E+00  0.0000000E+00  0.0000000E+00  0.0000000E+00  0.2500000E+02
  0.9676585E-03  0.8108000E+01  0.2065139E-04  0.0000000E+00  0.0000000E+00  0.0000000E+00  0.0000000E+00  0.0000000E+00  0.0000000E+00  0.2500000E+02
  0.1620882E-02  0.8108000E+01  0.2065139E-04  0.0000000E+00  0.0000000E+00  0.0000000E+00  0.0000000E+00  0.0000000E+00  0.0000000E+00  0.2500000E+02
  0.2713934E-02  0.8108000E+01  0.2065139E-04  0.0000000E+00  0.0000000E+00  0.0000000E+00  0.0000000E+00  0.0000000E+00  0.0000000E+00  0.2500000E+02
  0.4542960E-02  0.8108000E+01  0.2065139E-04  0.0000000E+00  0.0000000E+00  0.0000000E+00  0.0000000E+00  0.0000000E+00  0.0000000E+00  0.2500000E+02
  0.7603506E-02  0.8108000E+01  0.2065139E-04  0.0000000E+00  0.0000000E+00  0.0000000E+00  0.0000000E+00  0.0000000E+00  0.0000000E+00  0.2500000E+02
  0.1272478E-01  0.8108000E+01  0.2065139E-04  0.0000000E+00  0.0000000E+00  0.0000000E+00  0.0000000E+00  0.0000000E+00  0.0000000E+00  0.2500000E+02
  0.2129431E-01  0.8108000E+01  0.2065139E-04  0.0000000E+00  0.0000000E+00  0.0000000E+00  0.0000000E+00  0.0000000E+00  0.0000000E+00  0.2500000E+02
  0.3438448E-01  0.8108000E+01  0.2065139E-04  0.0000000E+00  0.0000000E+00  0.0000000E+00  0.0000000E+00  0.0000000E+00  0.0000000E+00  0.2500000E+02
  0.5438005E-01  0.8108000E+01  0.2065139E-04  0.0000000E+00  0.0000000E+00  0.0000000E+00  0.0000000E+00  0.0000000E+00  0.0000000E+00  0.2500000E+02
  0.8783903E-01  0.8108000E+01  0.2065139E-04  0.0000000E+00  0.0000000E+00  0.0000000E+00  0.0000000E+00  0.0000000E+00  0.0000000E+00  0.2500000E+02
  0.1267851E+00  0.8108000E+01  0.2065139E-04  0.0000000E+00  0.0000000E+00  0.0000000E+00  0.0000000E+00  0.0000000E+00  0.0000000E+00  0.2500000E+02
  0.1392325E+00  0.8108000E+01  0.2065139E-04  0.0000000E+00  0.0000000E+00  0.0000000E+00  0.0000000E+00  0.0000000E+00  0.0000000E+00  0.2500000E+02
  0.1568358E+00  0.8108000E+01  0.2065139E-04  0.0000000E+00  0.0000000E+00  0.0000000E+00  0.0000000E+00  0.0000000E+00  0.0000000E+00  0.2500000E+02
  0.1837252E+00  0.8108000E+01  0.2065139E-04  0.0000000E+00  0.0000000E+00  0.0000000E+00  0.0000000E+00  0.0000000E+00  0.0000000E+00  0.2500000E+02
  0.2247994E+00  0.8108000E+01  0.2065139E-04  0.0000000E+00  0.0000000E+00  0.0000000E+00  0.0000000E+00  0.0000000E+00  0.0000000E+00  0.2500000E+02
  0.2828872E+00  0.8108000E+01  0.2065139E-04  0.0000000E+00  0.0000000E+00  0.0000000E+00  0.0000000E+00  0.0000000E+00  0.0000000E+00  0.2500000E+02
  0.3650358E+00  0.8108000E+01  0.2065139E-04  0.0000000E+00  0.0000000E+00  0.0000000E+00  0.0000000E+00  0.0000000E+00  0.0000000E+00  0.2500000E+02
  0.4447793E+00  0.8108000E+01  0.2065139E-04  0.0000000E+00  0.0000000E+00  0.0000000E+00  0.0000000E+00  0.0000000E+00  0.0000000E+00  0.2500000E+02
  0.4697434E+00  0.8108000E+01  0.2065139E-04  0.0000000E+00  0.0000000E+00  0.0000000E+00  0.0000000E+00  0.0000000E+00  0.0000000E+00  0.2500000E+02
  0.5008791E+00  0.8108000E+01  0.2065139E-04  0.0000000E+00  0.0000000E+00  0.0000000E+00  0.0000000E+00  0.0000000E+00  0.0000000E+00  0.2500000E+02
  0.5449116E+00  0.8108000E+01  0.2065139E-04  0.0000000E+00  0.0000000E+00  0.0000000E+00  0.0000000E+00  0.0000000E+00  0.0000000E+00  0.2500000E+02
  0.6121724E+00  0.8108000E+01  0.2065139E-04  0.0000000E+00  0.0000000E+00  0.0000000E+00  0.0000000E+00  0.0000000E+00  0.0000000E+00  0.2500000E+02
  0.7149150E+00  0.8108000E+01  0.2065139E-04  0.0000000E+00  0.0000000E+00  0.0000000E+00  0.0000000E+00  0.0000000E+00  0.0000000E+00  0.2500000E+02
  0.7972829E+00  0.8108000E+01  0.2065139E-04  0.0000000E+00  0.0000000E+00  0.0000000E+00  0.0000000E+00  0.0000000E+00  0.0000000E+00  0.2500000E+02
  0.8265010E+00  0.8108000E+01  0.2065139E-04  0.0000000E+00  0.0000000E+00  0.0000000E+00  0.0000000E+00  0.0000000E+00  0.0000000E+00  0.2500000E+02
  0.8526344E+00  0.8108000E+01  0.2065139E-04  0.0000000E+00  0.0000000E+00  0.0000000E+00  0.0000000E+00  0.0000000E+00  0.0000000E+00  0.2500000E+02
  0.8821170E+00  0.8108000E+01  0.2065139E-04  0.0000000E+00  0.0000000E+00  0.0000000E+00  0.0000000E+00  0.0000000E+00  0.0000000E+00  0.2500000E+02
  0.9271523E+00  0.8108000E+01  0.2065139E-04  0.0000000E+00  0.0000000E+00  0.0000000E+00  0.0000000E+00  0.0000000E+00  0.0000000E+00  0.2500000E+02
  0.9959448E+00  0.8108000E+01  0.2065139E-04  0.0000000E+00  0.0000000E+00  0.0000000E+00  0.0000000E+00  0.0000000E+00  0.0000000E+00  0.2500000E+02
  0.1101027E+01  0.8108000E+01  0.2065139E-04  0.0000000E+00  0.0000000E+00  0.0000000E+00  0.0000000E+00  0.0000000E+00  0.0000000E+00  0.2500000E+02
  0.1185765E+01  0.8108000E+01  0.2065139E-04  0.0000000E+00  0.0000000E+00  0.0000000E+00  0.0000000E+00  0.0000000E+00  0.0000000E+00  0.2500000E+02
  0.1213076E+01  0.8108000E+01  0.2065139E-04  0.0000000E+00  0.0000000E+00  0.0000000E+00  0.0000000E+00  0.0000000E+00  0.0000000E+00  0.2500000E+02
  0.1251701E+01  0.8108000E+01  0.2065139E-04  0.0000000E+00  0.0000000E+00  0.0000000E+00  0.0000000E+00  0.0000000E+00  0.0000000E+00  0.2500000E+02
  0.1306323E+01  0.8108000E+01  0.2065139E-04  0.0000000E+00  0.0000000E+00  0.0000000E+00  0.0000000E+00  0.0000000E+00  0.0000000E+00  0.2500000E+02
  0.1389761E+01  0.8108000E+01  0.2065139E-04  0.0000000E+00  0.0000000E+00  0.0000000E+00  0.0000000E+00  0.0000000E+00  0.0000000E+00  0.2500000E+02
  0.1499841E+01  0.8108000E+01  0.2065139E-04  0.0000000E+00  0.0000000E+00  0.0000000E+00  0.0000000E+00  0.0000000E+00  0.0000000E+00  0.2500000E+02
  0.1562050E+01  0.8108000E+01  0.2065139E-04  0.0000000E+00  0.0000000E+00  0.0000000E+00  0.0000000E+00  0.0000000E+00  0.0000000E+00  0.2500000E+02
  0.1588257E+01  0.8108000E+01  0.2065139E-04  0.0000000E+00  0.0000000E+00  0.0000000E+00  0.0000000E+00  0.0000000E+00  0.0000000E+00  0.2500000E+02
  0.1622927E+01  0.8108000E+01  0.2065139E-04  0.0000000E+00  0.0000000E+00  0.0000000E+00  0.0000000E+00  0.0000000E+00  0.0000000E+00  0.2500000E+02
  0.1675886E+01  0.8108000E+01  0.2065139E-04  0.0000000E+00  0.0000000E+00  0.0000000E+00  0.0000000E+00  0.0000000E+00  0.0000000E+00  0.2500000E+02
  0.1756781E+01  0.8108000E+01  0.2065139E-04  0.0000000E+00  0.0000000E+00  0.0000000E+00  0.0000000E+00  0.0000000E+00  0.0000000E+00  0.2500000E+02
  0.1871185E+01  0.8108000E+01  0.2065139E-04  0.0000000E+00  0.0000000E+00  0.0000000E+00  0.0000000E+00  0.0000000E+00  0.0000000E+00  0.2500000E+02
  0.1928625E+01  0.8108000E+01  0.2065139E-04  0.0000000E+00  0.0000000E+00  0.0000000E+00  0.0000000E+00  0.0000000E+00  0.0000000E+00  0.2500000E+02
  0.1953845E+01  0.8108000E+01  0.2065139E-04  0.0000000E+00  0.0000000E+00  0.0000000E+00  0.0000000E+00  0.0000000E+00  0.0000000E+00  0.2500000E+02
  0.1987208E+01  0.8108000E+01  0.2065139E-04  0.0000000E+00  0.0000000E+00  0.0000000E+00  0.0000000E+00  0.0000000E+00  0.0000000E+00  0.2500000E+02
  0.2038171E+01  0.8108000E+01  0.2065139E-04  0.0000000E+00  0.0000000E+00  0.0000000E+00  0.0000000E+00  0.0000000E+00  0.0000000E+00  0.2500000E+02
  0.2116018E+01  0.8108000E+01  0.2065139E-04  0.0000000E+00  0.0000000E+00  0.0000000E+00  0.0000000E+00  0.0000000E+00  0.0000000E+00  0.2500000E+02
  0.2234931E+01  0.8108000E+01  0.2065139E-04  0.0000000E+00  0.0000000E+00  0.0000000E+00  0.0000000E+00  0.0000000E+00  0.0000000E+00  0.2500000E+02
  0.2272892E+01  0.8108000E+01  0.2065139E-04  0.0000000E+00  0.0000000E+00  0.0000000E+00  0.0000000E+00  0.0000000E+00  0.0000000E+00  0.2500000E+02
  0.2290138E+01  0.8108000E+01  0.2065139E-04  0.0000000E+00  0.0000000E+00  0.0000000E+00  0.0000000E+00  0.0000000E+00  0.0000000E+00  0.2500000E+02
  0.2314528E+01  0.8108000E+01  0.2065139E-04  0.0000000E+00  0.0000000E+00  0.0000000E+00  0.0000000E+00  0.0000000E+00  0.0000000E+00  0.2500000E+02
  0.2346793E+01  0.8108000E+01  0.2065139E-04  0.0000000E+00  0.0000000E+00  0.0000000E+00  0.0000000E+00  0.0000000E+00  0.0000000E+00  0.2500000E+02
  0.2392422E+01  0.8108000E+01  0.2065139E-04  0.0000000E+00  0.0000000E+00  0.0000000E+00  0.0000000E+00  0.0000000E+00  0.0000000E+00  0.2500000E+02
  0.2462122E+01  0.8108000E+01  0.2065139E-04  0.0000000E+00  0.0000000E+00  0.0000000E+00  0.0000000E+00  0.0000000E+00  0.0000000E+00  0.2500000E+02
  0.2568590E+01  0.8108000E+01  0.2065139E-04  0.0000000E+00  0.0000000E+00  0.0000000E+00  0.0000000E+00  0.0000000E+00  0.0000000E+00  0.2500000E+02
  0.2660636E+01  0.8108000E+01  0.2065139E-04  0.0000000E+00  0.0000000E+00  0.0000000E+00  0.0000000E+00  0.0000000E+00  0.0000000E+00  0.2500000E+02
  0.2689459E+01  0.8108000E+01  0.2065139E-04  0.0000000E+00  0.0000000E+00  0.0000000E+00  0.0000000E+00  0.0000000E+00  0.0000000E+00  0.2500000E+02
  0.2730220E+01  0.8108000E+01  0.2065139E-04  0.0000000E+00  0.0000000E+00  0.0000000E+00  0.0000000E+00  0.0000000E+00  0.0000000E+00  0.2500000E+02
  0.2787866E+01  0.8108000E+01  0.2065139E-04  0.0000000E+00  0.0000000E+00  0.0000000E+00  0.0000000E+00  0.0000000E+00  0.0000000E+00  0.2500000E+02
  0.2875920E+01  0.8108000E+01  0.2065139E-04  0.0000000E+00  0.0000000E+00  0.0000000E+00  0.0000000E+00  0.0000000E+00  0.0000000E+00  0.2500000E+02
  0.2992405E+01  0.8108000E+01  0.2065139E-04  0.0000000E+00  0.0000000E+00  0.0000000E+00  0.0000000E+00  0.0000000E+00  0.0000000E+00  0.2500000E+02
  0.3017730E+01  0.8108000E+01  0.2065139E-04  0.0000000E+00  0.0000000E+00  0.0000000E+00  0.0000000E+00  0.0000000E+00  0.0000000E+00  0.2500000E+02
  0.3034504E+01  0.8108000E+01  0.2065139E-04  0.0000000E+00  0.0000000E+00  0.0000000E+00  0.0000000E+00  0.0000000E+00  0.0000000E+00  0.2500000E+02
  0.3056694E+01  0.8108000E+01  0.2065139E-04  0.0000000E+00  0.0000000E+00  0.0000000E+00  0.0000000E+00  0.0000000E+00  0.0000000E+00  0.2500000E+02
  0.3088076E+01  0.8108000E+01  0.2065139E-04  0.0000000E+00  0.0000000E+00  0.0000000E+00  0.0000000E+00  0.0000000E+00  0.0000000E+00  0.2500000E+02
  0.3136013E+01  0.8108000E+01  0.2065139E-04  0.0000000E+00  0.0000000E+00  0.0000000E+00  0.0000000E+00  0.0000000E+00  0.0000000E+00  0.2500000E+02
  0.3209237E+01  0.8108000E+01  0.2065139E-04  0.0000000E+00  0.0000000E+00  0.0000000E+00  0.0000000E+00  0.0000000E+00  0.0000000E+00  0.2500000E+02
  0.3321088E+01  0.8108000E+01  0.2065139E-04  0.0000000E+00  0.0000000E+00  0.0000000E+00  0.0000000E+00  0.0000000E+00  0.0000000E+00  0.2500000E+02
  0.3403645E+01  0.8108000E+01  0.2065139E-04  0.0000000E+00  0.0000000E+00  0.0000000E+00  0.0000000E+00  0.0000000E+00  0.0000000E+00  0.2500000E+02
  0.3431414E+01  0.8108000E+01  0.2065139E-04  0.0000000E+00  0.0000000E+00  0.0000000E+00  0.0000000E+00  0.0000000E+00  0.0000000E+00  0.2500000E+02
  0.3470684E+01  0.8108000E+01  0.2065139E-04  0.0000000E+00  0.0000000E+00  0.0000000E+00  0.0000000E+00  0.0000000E+00  0.0000000E+00  0.2500000E+02
  0.3526221E+01  0.8108000E+01  0.2065139E-04  0.0000000E+00  0.0000000E+00  0.0000000E+00  0.0000000E+00  0.0000000E+00  0.0000000E+00  0.2500000E+02
  0.3611056E+01  0.8108000E+01  0.2065139E-04  0.0000000E+00  0.0000000E+00  0.0000000E+00  0.0000000E+00  0.0000000E+00  0.0000000E+00  0.2500000E+02
  0.3729499E+01  0.8108000E+01  0.2065139E-04  0.0000000E+00  0.0000000E+00  0.0000000E+00  0.0000000E+00  0.0000000E+00  0.0000000E+00  0.2500000E+02
  0.3777485E+01  0.8108000E+01  0.2065139E-04  0.0000000E+00  0.0000000E+00  0.0000000E+00  0.0000000E+00  0.0000000E+00  0.0000000E+00  0.2500000E+02
  0.3808017E+01  0.8108000E+01  0.2065139E-04  0.0000000E+00  0.0000000E+00  0.0000000E+00  0.0000000E+00  0.0000000E+00  0.0000000E+00  0.2500000E+02
  0.3844142E+01  0.8108000E+01  0.2065139E-04  0.0000000E+00  0.0000000E+00  0.0000000E+00  0.0000000E+00  0.0000000E+00  0.0000000E+00  0.2500000E+02
  0.3899324E+01  0.8108000E+01  0.2065139E-04  0.0000000E+00  0.0000000E+00  0.0000000E+00  0.0000000E+00  0.0000000E+00  0.0000000E+00  0.2500000E+02
  0.3983617E+01  0.8108000E+01  0.2065139E-04  0.0000000E+00  0.0000000E+00  0.0000000E+00  0.0000000E+00  0.0000000E+00  0.0000000E+00  0.2500000E+02
  0.4100444E+01  0.8108000E+01  0.2065139E-04  0.0000000E+00  0.0000000E+00  0.0000000E+00  0.0000000E+00  0.0000000E+00  0.0000000E+00  0.2500000E+02
  0.4144542E+01  0.8108000E+01  0.2065139E-04  0.0000000E+00  0.0000000E+00  0.0000000E+00  0.0000000E+00  0.0000000E+00  0.0000000E+00  0.2500000E+02
  0.4177237E+01  0.8108000E+01  0.2065139E-04  0.0000000E+00  0.0000000E+00  0.0000000E+00  0.0000000E+00  0.0000000E+00  0.0000000E+00  0.2500000E+02
  0.4215923E+01  0.8108000E+01  0.2065139E-04  0.0000000E+00  0.0000000E+00  0.0000000E+00  0.0000000E+00  0.0000000E+00  0.0000000E+00  0.2500000E+02
  0.4275017E+01  0.8108000E+01  0.2065139E-04  0.0000000E+00  0.0000000E+00  0.0000000E+00  0.0000000E+00  0.0000000E+00  0.0000000E+00  0.2500000E+02
  0.4365285E+01  0.8108000E+01  0.2065139E-04  0.0000000E+00  0.0000000E+00  0.0000000E+00  0.0000000E+00  0.0000000E+00  0.0000000E+00  0.2500000E+02
  0.4475502E+01  0.8108000E+01  0.2065139E-04  0.0000000E+00  0.0000000E+00  0.0000000E+00  0.0000000E+00  0.0000000E+00  0.0000000E+00  0.2500000E+02
  0.4509476E+01  0.8108000E+01  0.2065139E-04  0.0000000E+00  0.0000000E+00  0.0000000E+00  0.0000000E+00  0.0000000E+00  0.0000000E+00  0.2500000E+02
  0.4549673E+01  0.8108000E+01  0.2065139E-04  0.0000000E+00  0.0000000E+00  0.0000000E+00  0.0000000E+00  0.0000000E+00  0.0000000E+00  0.2500000E+02
  0.4597236E+01  0.8108000E+01  0.2065139E-04  0.0000000E+00  0.0000000E+00  0.0000000E+00  0.0000000E+00  0.0000000E+00  0.0000000E+00  0.2500000E+02
  0.4664500E+01  0.8108000E+01  0.2065139E-04  0.0000000E+00  0.0000000E+00  0.0000000E+00  0.0000000E+00  0.0000000E+00  0.0000000E+00  0.2500000E+02
  0.4767247E+01  0.8108000E+01  0.2065139E-04  0.0000000E+00  0.0000000E+00  0.0000000E+00  0.0000000E+00  0.0000000E+00  0.0000000E+00  0.2500000E+02
  0.4862689E+01  0.8108000E+01  0.2065139E-04  0.0000000E+00  0.0000000E+00  0.0000000E+00  0.0000000E+00  0.0000000E+00  0.0000000E+00  0.2500000E+02
  0.4891920E+01  0.8108000E+01  0.2065139E-04  0.0000000E+00  0.0000000E+00  0.0000000E+00  0.0000000E+00  0.0000000E+00  0.0000000E+00  0.2500000E+02
  0.4933258E+01  0.8108000E+01  0.2065139E-04  0.0000000E+00  0.0000000E+00  0.0000000E+00  0.0000000E+00  0.0000000E+00  0.0000000E+00  0.2500000E+02
  0.4991720E+01  0.8108000E+01  0.2065139E-04  0.0000000E+00  0.0000000E+00  0.0000000E+00  0.0000000E+00  0.0000000E+00  0.0000000E+00  0.2500000E+02
  0.5081021E+01  0.8108000E+01  0.2065139E-04  0.0000000E+00  0.0000000E+00  0.0000000E+00  0.0000000E+00  0.0000000E+00  0.0000000E+00  0.2500000E+02
  0.5202434E+01  0.8108000E+01  0.2065139E-04  0.0000000E+00  0.0000000E+00  0.0000000E+00  0.0000000E+00  0.0000000E+00  0.0000000E+00  0.2500000E+02
  0.5248016E+01  0.8108000E+01  0.2065139E-04  0.0000000E+00  0.0000000E+00  0.0000000E+00  0.0000000E+00  0.0000000E+00  0.0000000E+00  0.2500000E+02
  0.5280706E+01  0.8108000E+01  0.2065139E-04  0.0000000E+00  0.0000000E+00  0.0000000E+00  0.0000000E+00  0.0000000E+00  0.0000000E+00  0.2500000E+02
  0.5319386E+01  0.8108000E+01  0.2065139E-04  0.0000000E+00  0.0000000E+00  0.0000000E+00  0.0000000E+00  0.0000000E+00  0.0000000E+00  0.2500000E+02
  0.5378470E+01  0.8108000E+01  0.2065139E-04  0.0000000E+00  0.0000000E+00  0.0000000E+00  0.0000000E+00  0.0000000E+00  0.0000000E+00  0.2500000E+02
  0.5468723E+01  0.8108000E+01  0.2065139E-04  0.0000000E+00  0.0000000E+00  0.0000000E+00  0.0000000E+00  0.0000000E+00  0.0000000E+00  0.2500000E+02
  0.5578915E+01  0.8108000E+01  0.2065139E-04  0.0000000E+00  0.0000000E+00  0.0000000E+00  0.0000000E+00  0.0000000E+00  0.0000000E+00  0.2500000E+02
  0.5612803E+01  0.8108000E+01  0.2065139E-04  0.0000000E+00  0.0000000E+00  0.0000000E+00  0.0000000E+00  0.0000000E+00  0.0000000E+00  0.2500000E+02
  0.5655069E+01  0.8108000E+01  0.2065139E-04  0.0000000E+00  0.0000000E+00  0.0000000E+00  0.0000000E+00  0.0000000E+00  0.0000000E+00  0.2500000E+02
  0.5705078E+01  0.8108000E+01  0.2065139E-04  0.0000000E+00  0.0000000E+00  0.0000000E+00  0.0000000E+00  0.0000000E+00  0.0000000E+00  0.2500000E+02
  0.5775802E+01  0.8108000E+01  0.2065139E-04  0.0000000E+00  0.0000000E+00  0.0000000E+00  0.0000000E+00  0.0000000E+00  0.0000000E+00  0.2500000E+02
  0.5883835E+01  0.8108000E+01  0.2065139E-04  0.0000000E+00  0.0000000E+00  0.0000000E+00  0.0000000E+00  0.0000000E+00  0.0000000E+00  0.2500000E+02
  0.5973594E+01  0.8108000E+01  0.2065139E-04  0.0000000E+00  0.0000000E+00  0.0000000E+00  0.0000000E+00  0.0000000E+00  0.0000000E+00  0.2500000E+02
  0.6002130E+01  0.8108000E+01  0.2065139E-04  0.0000000E+00  0.0000000E+00  0.0000000E+00  0.0000000E+00  0.0000000E+00  0.0000000E+00  0.2500000E+02
  0.6042487E+01  0.8108000E+01  0.2065139E-04  0.0000000E+00  0.0000000E+00  0.0000000E+00  0.0000000E+00  0.0000000E+00  0.0000000E+00  0.2500000E+02
  0.6099560E+01  0.8108000E+01  0.2065139E-04  0.0000000E+00  0.0000000E+00  0.0000000E+00  0.0000000E+00  0.0000000E+00  0.0000000E+00  0.2500000E+02
  0.6186740E+01  0.8108000E+01  0.2065139E-04  0.0000000E+00  0.0000000E+00  0.0000000E+00  0.0000000E+00  0.0000000E+00  0.0000000E+00  0.2500000E+02
  0.6306490E+01  0.8108000E+01  0.2065139E-04  0.0000000E+00  0.0000000E+00  0.0000000E+00  0.0000000E+00  0.0000000E+00  0.0000000E+00  0.2500000E+02
  0.6351627E+01  0.8108000E+01  0.2065139E-04  0.0000000E+00  0.0000000E+00  0.0000000E+00  0.0000000E+00  0.0000000E+00  0.0000000E+00  0.2500000E+02
  0.6384293E+01  0.8108000E+01  0.2065139E-04  0.0000000E+00  0.0000000E+00  0.0000000E+00  0.0000000E+00  0.0000000E+00  0.0000000E+00  0.2500000E+02
  0.6422944E+01  0.8108000E+01  0.2065139E-04  0.0000000E+00  0.0000000E+00  0.0000000E+00  0.0000000E+00  0.0000000E+00  0.0000000E+00  0.2500000E+02
  0.6481984E+01  0.8108000E+01  0.2065139E-04  0.0000000E+00  0.0000000E+00  0.0000000E+00  0.0000000E+00  0.0000000E+00  0.0000000E+00  0.2500000E+02
  0.6572170E+01  0.8108000E+01  0.2065139E-04  0.0000000E+00  0.0000000E+00  0.0000000E+00  0.0000000E+00  0.0000000E+00  0.0000000E+00  0.2500000E+02
  0.6682725E+01  0.8108000E+01  0.2065140E-04  0.0000000E+00  0.0000000E+00  0.0000000E+00  0.0000000E+00  0.0000000E+00  0.0000000E+00  0.2500000E+02
  0.6716778E+01  0.8108000E+01  0.2065140E-04  0.0000000E+00  0.0000000E+00  0.0000000E+00  0.0000000E+00  0.0000000E+00  0.0000000E+00  0.2500000E+02
  0.6757071E+01  0.8108000E+01  0.2065140E-04  0.0000000E+00  0.0000000E+00  0.0000000E+00  0.0000000E+00  0.0000000E+00  0.0000000E+00  0.2500000E+02
  0.6804745E+01  0.8108000E+01  0.2065140E-04  0.0000000E+00  0.0000000E+00  0.0000000E+00  0.0000000E+00  0.0000000E+00  0.0000000E+00  0.2500000E+02
  0.6872167E+01  0.8108000E+01  0.2065140E-04  0.0000000E+00  0.0000000E+00  0.0000000E+00  0.0000000E+00  0.0000000E+00  0.0000000E+00  0.2500000E+02
  0.6975155E+01  0.8108000E+01  0.2065140E-04  0.0000000E+00  0.0000000E+00  0.0000000E+00  0.0000000E+00  0.0000000E+00  0.0000000E+00  0.2500000E+02
  0.7070782E+01  0.8108000E+01  0.2065140E-04  0.0000000E+00  0.0000000E+00  0.0000000E+00  0.0000000E+00  0.0000000E+00  0.0000000E+00  0.2500000E+02
  0.7100101E+01  0.8108000E+01  0.2065140E-04  0.0000000E+00  0.0000000E+00  0.0000000E+00  0.0000000E+00  0.0000000E+00  0.0000000E+00  0.2500000E+02
  0.7141562E+01  0.8108000E+01  0.2065140E-04  0.0000000E+00  0.0000000E+00  0.0000000E+00  0.0000000E+00  0.0000000E+00  0.0000000E+00  0.2500000E+02
  0.7200198E+01  0.8108000E+01  0.2065140E-04  0.0000000E+00  0.0000000E+00  0.0000000E+00  0.0000000E+00  0.0000000E+00  0.0000000E+00  0.2500000E+02
  0.7289767E+01  0.8108000E+01  0.2065141E-04  0.0000000E+00  0.0000000E+00  0.0000000E+00  0.0000000E+00  0.0000000E+00  0.0000000E+00  0.2500000E+02
  0.7411103E+01  0.8108000E+01  0.2065144E-04  0.0000000E+00  0.0000000E+00  0.0000000E+00  0.0000000E+00  0.0000000E+00  0.0000000E+00  0.2500000E+02
  0.7433474E+01  0.8108000E+01  0.2065144E-04  0.0000000E+00  0.0000000E+00  0.0000000E+00  0.0000000E+00  0.0000000E+00  0.0000000E+00  0.2500000E+02
  0.7453537E+01  0.8108000E+01  0.2065145E-04  0.0000000E+00  0.0000000E+00  0.0000000E+00  0.0000000E+00  0.0000000E+00  0.0000000E+00  0.2500000E+02
  0.7478560E+01  0.8108000E+01  0.2065146E-04  0.0000000E+00  0.0000000E+00  0.0000000E+00  0.0000000E+00  0.0000000E+00  0.0000000E+00  0.2500000E+02
  0.7513949E+01  0.8108000E+01  0.2065147E-04  0.0000000E+00  0.0000000E+00  0.0000000E+00  0.0000000E+00  0.0000000E+00  0.0000000E+00  0.2500000E+02
  0.7568005E+01  0.8108000E+01  0.2065150E-04  0.0000000E+00  0.0000000E+00  0.0000000E+00  0.0000000E+00  0.0000000E+00  0.0000000E+00  0.2500000E+02
  0.7650577E+01  0.8108000E+01  0.2065159E-04  0.0000000E+00  0.0000000E+00  0.0000000E+00  0.0000000E+00  0.0000000E+00  0.0000000E+00  0.2500000E+02
  0.7774214E+01  0.8108000E+01  0.2065189E-04  0.0000000E+00  0.0000000E+00  0.0000000E+00  0.0000000E+00  0.0000000E+00  0.0000000E+00  0.2500000E+02
  0.7801026E+01  0.8108000E+01  0.2065197E-04  0.0000000E+00  0.0000000E+00  0.0000000E+00  0.0000000E+00  0.0000000E+00  0.0000000E+00  0.2500000E+02
  0.7817960E+01  0.8108000E+01  0.2065202E-04  0.0000000E+00  0.0000000E+00  0.0000000E+00  0.0000000E+00  0.0000000E+00  0.0000000E+00  0.2500000E+02
  0.7840362E+01  0.8108000E+01  0.2065210E-04  0.0000000E+00  0.0000000E+00  0.0000000E+00  0.0000000E+00  0.0000000E+00  0.0000000E+00  0.2500000E+02
  0.7872042E+01  0.8108000E+01  0.2065223E-04  0.0000000E+00  0.0000000E+00  0.0000000E+00  0.0000000E+00  0.0000000E+00  0.0000000E+00  0.2500000E+02
  0.7920435E+01  0.8108000E+01  0.2065249E-04  0.0000000E+00  0.0000000E+00  0.0000000E+00  0.0000000E+00  0.0000000E+00  0.0000000E+00  0.2500000E+02
  0.7994356E+01  0.8108000E+01  0.2065310E-04  0.0000000E+00  0.0000000E+00  0.0000000E+00  0.0000000E+00  0.0000000E+00  0.0000000E+00  0.2500000E+02
  0.8098895E+01  0.8108000E+01  0.2065475E-04  0.0000000E+00  0.0000000E+00  0.0000000E+00  0.0000000E+00  0.0000000E+00  0.0000000E+00  0.2500000E+02
  0.8184226E+01  0.8108000E+01  0.2065694E-04  0.0000000E+00  0.0000000E+00  0.0000000E+00  0.0000000E+00  0.0000000E+00  0.0000000E+00  0.2500000E+02
  0.8212190E+01  0.8108000E+01  0.2065776E-04  0.0000000E+00  0.0000000E+00  0.0000000E+00  0.0000000E+00  0.0000000E+00  0.0000000E+00  0.2500000E+02
  0.8251736E+01  0.8108000E+01  0.2065918E-04  0.0000000E+00  0.0000000E+00  0.0000000E+00  0.0000000E+00  0.0000000E+00  0.0000000E+00  0.2500000E+02
  0.8307663E+01  0.8108000E+01  0.2066182E-04  0.0000000E+00  0.0000000E+00  0.0000000E+00  0.0000000E+00  0.0000000E+00  0.0000000E+00  0.2500000E+02
  0.8393092E+01  0.8108000E+01  0.2066821E-04  0.0000000E+00  0.0000000E+00  0.0000000E+00  0.0000000E+00  0.0000000E+00  0.0000000E+00  0.2500000E+02
  0.8513747E+01  0.8108000E+01  0.2068624E-04  0.0000000E+00  0.0000000E+00  0.0000000E+00  0.0000000E+00  0.0000000E+00  0.0000000E+00  0.2500000E+02
  0.8561374E+01  0.8108000E+01  0.2069516E-04  0.0000000E+00  0.0000000E+00  0.0000000E+00  0.0000000E+00  0.0000000E+00  0.0000000E+00  0.2500000E+02
  0.8592548E+01  0.8108000E+01  0.2070185E-04  0.0000000E+00  0.0000000E+00  0.0000000E+00  0.0000000E+00  0.0000000E+00  0.0000000E+00  0.2500000E+02
  0.8629433E+01  0.8108000E+01  0.2071114E-04  0.0000000E+00  0.0000000E+00  0.0000000E+00  0.0000000E+00  0.0000000E+00  0.0000000E+00  0.2500000E+02
  0.8685777E+01  0.8108000E+01  0.2072946E-04  0.0000000E+00  0.0000000E+00  0.0000000E+00  0.0000000E+00  0.0000000E+00  0.0000000E+00  0.2500000E+02
  0.8771843E+01  0.8108000E+01  0.2077160E-04  0.0000000E+00  0.0000000E+00  0.0000000E+00  0.0000000E+00  0.0000000E+00  0.0000000E+00  0.2500000E+02
  0.8886253E+01  0.8108000E+01  0.2087003E-04  0.0000000E+00  0.0000000E+00  0.0000000E+00  0.0000000E+00  0.0000000E+00  0.0000000E+00  0.2500000E+02
  0.8925122E+01  0.8108000E+01  0.2090944E-04  0.0000000E+00  0.0000000E+00  0.0000000E+00  0.0000000E+00  0.0000000E+00  0.0000000E+00  0.2500000E+02
  0.8959888E+01  0.8108000E+01  0.2094987E-04  0.0000000E+00  0.0000000E+00  0.0000000E+00  0.0000000E+00  0.0000000E+00  0.0000000E+00  0.2500000E+02
  0.9001024E+01  0.8108000E+01  0.2100618E-04  0.0000000E+00  0.0000000E+00  0.0000000E+00  0.0000000E+00  0.0000000E+00  0.0000000E+00  0.2500000E+02
  0.9059199E+01  0.8108000E+01  0.2110695E-04  0.0000000E+00  0.0000000E+00  0.0000000E+00  0.0000000E+00  0.0000000E+00  0.0000000E+00  0.2500000E+02
  0.9148062E+01  0.8108000E+01  0.2133079E-04  0.0000000E+00  0.0000000E+00  0.0000000E+00  0.0000000E+00  0.0000000E+00  0.0000000E+00  0.2500000E+02
  0.9258893E+01  0.8108000E+01  0.2177790E-04  0.0000000E+00  0.0000000E+00  0.0000000E+00  0.0000000E+00  0.0000000E+00  0.0000000E+00  0.2500000E+02
  0.9293281E+01  0.8108000E+01  0.2193582E-04  0.0000000E+00  0.0000000E+00  0.0000000E+00  0.0000000E+00  0.0000000E+00  0.0000000E+00  0.2500000E+02
  0.9333970E+01  0.8108000E+01  0.2215156E-04  0.0000000E+00  0.0000000E+00  0.0000000E+00  0.0000000E+00  0.0000000E+00  0.0000000E+00  0.2500000E+02
  0.9382113E+01  0.8108000E+01  0.2245443E-04  0.0000000E+00  0.0000000E+00  0.0000000E+00  0.0000000E+00  0.0000000E+00  0.0000000E+00  0.2500000E+02
  0.9450198E+01  0.8108000E+01  0.2300214E-04  0.0000000E+00  0.0000000E+00  0.0000000E+00  0.0000000E+00  0.0000000E+00  0.0000000E+00  0.2500000E+02
  0.9554200E+01  0.8108000E+01  0.2423400E-04  0.0000000E+00  0.0000000E+00  0.0000000E+00  0.0000000E+00  0.0000000E+00  0.0000000E+00  0.2500000E+02
  0.9648911E+01  0.8108000E+01  0.2580188E-04  0.0000000E+00  0.0000000E+00  0.0000000E+00  0.0000000E+00  0.0000000E+00  0.0000000E+00  0.2500000E+02
  0.9678119E+01  0.8108000E+01  0.2633354E-04  0.0000000E+00  0.0000000E+00  0.0000000E+00  0.0000000E+00  0.0000000E+00  0.0000000E+00  0.2500000E+02
  0.9719426E+01  0.8108000E+01  0.2718745E-04  0.0000000E+00  0.0000000E+00  0.0000000E+00  0.0000000E+00  0.0000000E+00  0.0000000E+00  0.2500000E+02
  0.9777842E+01  0.8108000E+01  0.2863646E-04  0.0000000E+00  0.0000000E+00  0.0000000E+00  0.0000000E+00  0.0000000E+00  0.0000000E+00  0.2500000E+02
  0.9867074E+01  0.8108000E+01  0.3157388E-04  0.0000000E+00  0.0000000E+00  0.0000000E+00  0.0000000E+00  0.0000000E+00  0.0000000E+00  0.2500000E+02
  0.9988137E+01  0.8108000E+01  0.3741578E-04  0.0000000E+00  0.0000000E+00  0.0000000E+00  0.0000000E+00  0.0000000E+00  0.0000000E+00  0.2500000E+02
  0.1000000E+02  0.8108000E+01  0.3801209E-04  0.0000000E+00  0.0000000E+00  0.0000000E+00  0.0000000E+00  0.0000000E+00  0.0000000E+00  0.2500000E+02
  0.1001369E+02  0.8108000E+01  0.3872474E-04  0.0000000E+00  0.0000000E+00  0.0000000E+00  0.0000000E+00  0.0000000E+00  0.0000000E+00  0.2500000E+02
  0.1003305E+02  0.8108000E+01  0.3978461E-04  0.0000000E+00  0.0000000E+00  0.0000000E+00  0.0000000E+00  0.0000000E+00  0.0000000E+00  0.2500000E+02
  0.1005867E+02  0.8108000E+01  0.4128367E-04  0.0000000E+00  0.0000000E+00  0.0000000E+00  0.0000000E+00  0.0000000E+00  0.0000000E+00  0.2500000E+02
  0.1009489E+02  0.8108000E+01  0.4361511E-04  0.0000000E+00  0.0000000E+00  0.0000000E+00  0.0000000E+00  0.0000000E+00  0.0000000E+00  0.2500000E+02
  0.1015022E+02  0.8108000E+01  0.4773790E-04  0.0000000E+00  0.0000000E+00  0.0000000E+00  0.0000000E+00  0.0000000E+00  0.0000000E+00  0.2500000E+02
  0.1023474E+02  0.8108000E+01  0.5562346E-04  0.0000000E+00  0.0000000E+00  0.0000000E+00  0.0000000E+00  0.0000000E+00  0.0000000E+00  0.2500000E+02