title = "dataset surfx"
variables = "time","h+1","fe+3","so4-2","zn+2","fe+2","cu+2","=feoh(s)"
zone t = "T_j, volume =   101", f=point
  0.0000000E+00 -0.1260429E-05  0.9834854E-10  0.1000000E-04  0.1421990E-13  0.2158880E-11  0.4413181E-13  0.7668800E-02
  0.2400000E-06 -0.1260379E-05  0.1000000E-09  0.1000000E-04  0.1399882E-13  0.2113593E-11  0.4343362E-13  0.7668792E-02
  0.7584593E-06 -0.1287405E-05  0.1000000E-09  0.1000000E-04  0.1428246E-13  0.2158714E-11  0.4529735E-13  0.7668792E-02
  0.1728408E-05 -0.1287407E-05  0.1000000E-09  0.1000000E-04  0.1428254E-13  0.2158728E-11  0.4529735E-13  0.7668792E-02
  0.3543015E-05 -0.1287407E-05  0.1000000E-09  0.1000000E-04  0.1428254E-13  0.2158728E-11  0.4529735E-13  0.7668792E-02
  0.6937835E-05 -0.1287407E-05  0.1000000E-09  0.1000000E-04  0.1428254E-13  0.2158728E-11  0.4529735E-13  0.7668792E-02
  0.1328896E-04 -0.1287407E-05  0.1000000E-09  0.1000000E-04  0.1428254E-13  0.2158728E-11  0.4529735E-13  0.7668792E-02
  0.2391643E-04 -0.1287407E-05  0.1000000E-09  0.1000000E-04  0.1428254E-13  0.2158728E-11  0.4529735E-13  0.7668792E-02
  0.4169958E-04 -0.1287407E-05  0.1000000E-09  0.1000000E-04  0.1428254E-13  0.2158728E-11  0.4529735E-13  0.7668792E-02
  0.7145648E-04 -0.1287407E-05  0.1000000E-09  0.1000000E-04  0.1428254E-13  0.2158728E-11  0.4529735E-13  0.7668792E-02
  0.1212493E-03 -0.1287407E-05  0.1000000E-09  0.1000000E-04  0.1428254E-13  0.2158728E-11  0.4529735E-13  0.7668792E-02
  0.2045686E-03 -0.1287407E-05  0.1000000E-09  0.1000000E-04  0.1428254E-13  0.2158728E-11  0.4529735E-13  0.7668792E-02
  0.3439886E-03 -0.1287407E-05  0.1000000E-09  0.1000000E-04  0.1428254E-13  0.2158728E-11  0.4529735E-13  0.7668792E-02
  0.5772827E-03 -0.1287407E-05  0.1000000E-09  0.1000000E-04  0.1428254E-13  0.2158728E-11  0.4529735E-13  0.7668792E-02
  0.9676585E-03 -0.1287407E-05  0.1000000E-09  0.1000000E-04  0.1428254E-13  0.2158728E-11  0.4529735E-13  0.7668792E-02
  0.1620882E-02 -0.1287407E-05  0.1000000E-09  0.1000000E-04  0.1428254E-13  0.2158728E-11  0.4529735E-13  0.7668792E-02
  0.2713934E-02 -0.1287407E-05  0.1000000E-09  0.1000000E-04  0.1428254E-13  0.2158728E-11  0.4529735E-13  0.7668792E-02
  0.4542960E-02 -0.1287407E-05  0.1000000E-09  0.1000000E-04  0.1428254E-13  0.2158728E-11  0.4529735E-13  0.7668792E-02
  0.7603506E-02 -0.1287407E-05  0.1000000E-09  0.1000000E-04  0.1428254E-13  0.2158728E-11  0.4529735E-13  0.7668792E-02
  0.1272478E-01 -0.1287407E-05  0.1000000E-09  0.1000000E-04  0.1428254E-13  0.2158728E-11  0.4529735E-13  0.7668792E-02
  0.2129431E-01 -0.1287407E-05  0.1000000E-09  0.1000000E-04  0.1428254E-13  0.2158728E-11  0.4529735E-13  0.7668792E-02
  0.3438448E-01 -0.1287407E-05  0.1000000E-09  0.1000000E-04  0.1428254E-13  0.2158728E-11  0.4529735E-13  0.7668792E-02
  0.5438005E-01 -0.1287407E-05  0.1000000E-09  0.1000000E-04  0.1428254E-13  0.2158728E-11  0.4529735E-13  0.7668792E-02
  0.8783903E-01 -0.1287407E-05  0.1000000E-09  0.1000000E-04  0.1428254E-13  0.2158728E-11  0.4529735E-13  0.7668792E-02
  0.1267851E+00 -0.1287407E-05  0.1000000E-09  0.1000000E-04  0.1428254E-13  0.2158728E-11  0.4529735E-13  0.7668792E-02
  0.1392325E+00 -0.1287407E-05  0.1000000E-09  0.1000000E-04  0.1428254E-13  0.2158728E-11  0.4529735E-13  0.7668792E-02
  0.1568358E+00 -0.1287407E-05  0.1000000E-09  0.1000000E-04  0.1428254E-13  0.2158728E-11  0.4529735E-13  0.7668792E-02
  0.1837252E+00 -0.1287407E-05  0.1000000E-09  0.1000000E-04  0.1428254E-13  0.2158728E-11  0.4529735E-13  0.7668792E-02
  0.2247994E+00 -0.1287407E-05  0.1000000E-09  0.1000000E-04  0.1428254E-13  0.2158728E-11  0.4529735E-13  0.7668792E-02
  0.2828872E+00 -0.1287407E-05  0.1000000E-09  0.1000000E-04  0.1428254E-13  0.2158728E-11  0.4529735E-13  0.7668792E-02
  0.3650358E+00 -0.1287407E-05  0.1000000E-09  0.1000000E-04  0.1428254E-13  0.2158728E-11  0.4529735E-13  0.7668792E-02
  0.4447793E+00 -0.1287407E-05  0.1000000E-09  0.1000000E-04  0.1428254E-13  0.2158728E-11  0.4529735E-13  0.7668792E-02
  0.4697434E+00 -0.1287407E-05  0.1000000E-09  0.1000000E-04  0.1428254E-13  0.2158728E-11  0.4529735E-13  0.7668792E-02
  0.5008791E+00 -0.1287407E-05  0.1000000E-09  0.1000000E-04  0.1428254E-13  0.2158728E-11  0.4529735E-13  0.7668792E-02
  0.5449116E+00 -0.1287407E-05  0.1000000E-09  0.1000000E-04  0.1428254E-13  0.2158728E-11  0.4529735E-13  0.7668792E-02
  0.6121724E+00 -0.1287407E-05  0.1000000E-09  0.1000000E-04  0.1428254E-13  0.2158728E-11  0.4529735E-13  0.7668792E-02
  0.7149150E+00 -0.1287407E-05  0.1000000E-09  0.1000000E-04  0.1428254E-13  0.2158728E-11  0.4529735E-13  0.7668792E-02
  0.7972829E+00 -0.1287407E-05  0.1000000E-09  0.1000000E-04  0.1428254E-13  0.2158728E-11  0.4529735E-13  0.7668792E-02
  0.8265010E+00 -0.1287407E-05  0.1000000E-09  0.1000000E-04  0.1428254E-13  0.2158728E-11  0.4529735E-13  0.7668792E-02
  0.8526344E+00 -0.1287407E-05  0.1000000E-09  0.1000000E-04  0.1428254E-13  0.2158728E-11  0.4529735E-13  0.7668792E-02
  0.8821170E+00 -0.1287407E-05  0.1000000E-09  0.1000000E-04  0.1428254E-13  0.2158728E-11  0.4529735E-13  0.7668792E-02
  0.9271523E+00 -0.1287407E-05  0.1000000E-09  0.1000000E-04  0.1428254E-13  0.2158728E-11  0.4529735E-13  0.7668792E-02
  0.9959448E+00 -0.1287407E-05  0.1000000E-09  0.1000000E-04  0.1428254E-13  0.2158728E-11  0.4529735E-13  0.7668792E-02
  0.1101027E+01 -0.1287407E-05  0.1000000E-09  0.1000000E-04  0.1428254E-13  0.2158728E-11  0.4529735E-13  0.7668792E-02
  0.1185765E+01 -0.1287407E-05  0.1000000E-09  0.1000000E-04  0.1428254E-13  0.2158728E-11  0.4529735E-13  0.7668792E-02
  0.1213076E+01 -0.1287407E-05  0.1000000E-09  0.1000000E-04  0.1428254E-13  0.2158728E-11  0.4529735E-13  0.7668792E-02
  0.1251701E+01 -0.1287407E-05  0.1000000E-09  0.1000000E-04  0.1428254E-13  0.2158728E-11  0.4529735E-13  0.7668792E-02
  0.1306323E+01 -0.1287407E-05  0.1000000E-09  0.1000000E-04  0.1428254E-13  0.2158728E-11  0.4529735E-13  0.7668792E-02
  0.1389761E+01 -0.1287407E-05  0.1000000E-09  0.1000000E-04  0.1428254E-13  0.2158728E-11  0.4529735E-13  0.7668792E-02
  0.1499841E+01 -0.1287407E-05  0.1000000E-09  0.1000000E-04  0.1428254E-13  0.2158728E-11  0.4529735E-13  0.7668792E-02
  0.1562050E+01 -0.1287407E-05  0.1000000E-09  0.1000000E-04  0.1428254E-13  0.2158728E-11  0.4529735E-13  0.7668792E-02
  0.1588257E+01 -0.1287407E-05  0.1000000E-09  0.1000000E-04  0.1428254E-13  0.2158728E-11  0.4529735E-13  0.7668792E-02
  0.1622927E+01 -0.1287407E-05  0.1000000E-09  0.1000000E-04  0.1428254E-13  0.2158728E-11  0.4529735E-13  0.7668792E-02
  0.1675886E+01 -0.1287407E-05  0.1000000E-09  0.1000000E-04  0.1428254E-13  0.2158728E-11  0.4529735E-13  0.7668792E-02
  0.1756781E+01 -0.1287407E-05  0.1000000E-09  0.1000000E-04  0.1428254E-13  0.2158728E-11  0.4529735E-13  0.7668792E-02
  0.1871185E+01 -0.1287407E-05  0.1000000E-09  0.1000000E-04  0.1428254E-13  0.2158728E-11  0.4529735E-13  0.7668792E-02
  0.1928625E+01 -0.1287407E-05  0.1000000E-09  0.1000000E-04  0.1428254E-13  0.2158728E-11  0.4529735E-13  0.7668792E-02
  0.1953845E+01 -0.1287407E-05  0.1000000E-09  0.1000000E-04  0.1428254E-13  0.2158728E-11  0.4529735E-13  0.7668792E-02
  0.1987208E+01 -0.1287407E-05  0.1000000E-09  0.1000000E-04  0.1428254E-13  0.2158728E-11  0.4529735E-13  0.7668792E-02
  0.2038171E+01 -0.1287407E-05  0.1000000E-09  0.1000000E-04  0.1428254E-13  0.2158728E-11  0.4529735E-13  0.7668792E-02
  0.2116018E+01 -0.1287407E-05  0.1000000E-09  0.1000000E-04  0.1428254E-13  0.2158728E-11  0.4529735E-13  0.7668792E-02
  0.2234931E+01 -0.1287407E-05  0.1000000E-09  0.1000000E-04  0.1428254E-13  0.2158728E-11  0.4529735E-13  0.7668792E-02
  0.2272892E+01 -0.1287407E-05  0.1000000E-09  0.1000000E-04  0.1428254E-13  0.2158728E-11  0.4529735E-13  0.7668792E-02
  0.2290138E+01 -0.1287407E-05  0.1000000E-09  0.1000000E-04  0.1428254E-13  0.2158728E-11  0.4529735E-13  0.7668792E-02
  0.2314528E+01 -0.1287407E-05  0.1000000E-09  0.1000000E-04  0.1428254E-13  0.2158728E-11  0.4529735E-13  0.7668792E-02
  0.2346793E+01 -0.1287407E-05  0.1000000E-09  0.1000000E-04  0.1428254E-13  0.2158728E-11  0.4529735E-13  0.7668792E-02
  0.2392422E+01 -0.1287407E-05  0.1000000E-09  0.1000000E-04  0.1428254E-13  0.2158728E-11  0.4529735E-13  0.7668792E-02
  0.2462122E+01 -0.1287407E-05  0.1000000E-09  0.1000000E-04  0.1428254E-13  0.2158728E-11  0.4529735E-13  0.7668792E-02
  0.2568590E+01 -0.1287407E-05  0.1000000E-09  0.1000000E-04  0.1428254E-13  0.2158728E-11  0.4529735E-13  0.7668792E-02
  0.2660636E+01 -0.1287407E-05  0.1000000E-09  0.1000000E-04  0.1428254E-13  0.2158728E-11  0.4529735E-13  0.7668792E-02
  0.2689459E+01 -0.1287407E-05  0.1000000E-09  0.1000000E-04  0.1428254E-13  0.2158728E-11  0.4529735E-13  0.7668792E-02
  0.2730220E+01 -0.1287407E-05  0.1000000E-09  0.1000000E-04  0.1428254E-13  0.2158728E-11  0.4529735E-13  0.7668792E-02
  0.2787866E+01 -0.1287407E-05  0.1000000E-09  0.1000000E-04  0.1428254E-13  0.2158728E-11  0.4529735E-13  0.7668792E-02
  0.2875920E+01 -0.1287407E-05  0.1000000E-09  0.1000000E-04  0.1428254E-13  0.2158728E-11  0.4529735E-13  0.7668792E-02
  0.2992405E+01 -0.1287407E-05  0.1000000E-09  0.1000000E-04  0.1428254E-13  0.2158728E-11  0.4529735E-13  0.7668792E-02
  0.3017730E+01 -0.1287407E-05  0.1000000E-09  0.1000000E-04  0.1428254E-13  0.2158728E-11  0.4529735E-13  0.7668792E-02
  0.3034504E+01 -0.1287407E-05  0.1000000E-09  0.1000000E-04  0.1428254E-13  0.2158728E-11  0.4529735E-13  0.7668792E-02
  0.3056694E+01 -0.1287407E-05  0.1000000E-09  0.1000000E-04  0.1428254E-13  0.2158728E-11  0.4529735E-13  0.7668792E-02
  0.3088076E+01 -0.1287407E-05  0.1000000E-09  0.1000000E-04  0.1428254E-13  0.2158728E-11  0.4529735E-13  0.7668792E-02
  0.3136013E+01 -0.1287407E-05  0.1000000E-09  0.1000000E-04  0.1428254E-13  0.2158728E-11  0.4529735E-13  0.7668792E-02
  0.3209237E+01 -0.1287407E-05  0.1000000E-09  0.1000000E-04  0.1428254E-13  0.2158728E-11  0.4529735E-13  0.7668792E-02
  0.3321088E+01 -0.1287407E-05  0.1000000E-09  0.1000000E-04  0.1428254E-13  0.2158728E-11  0.4529735E-13  0.7668792E-02
  0.3403645E+01 -0.1287407E-05  0.1000000E-09  0.1000000E-04  0.1428254E-13  0.2158728E-11  0.4529735E-13  0.7668792E-02
  0.3431414E+01 -0.1287407E-05  0.1000000E-09  0.1000000E-04  0.1428254E-13  0.2158728E-11  0.4529735E-13  0.7668792E-02
  0.3470684E+01 -0.1287407E-05  0.1000000E-09  0.1000000E-04  0.1428254E-13  0.2158728E-11  0.4529735E-13  0.7668792E-02
  0.3526221E+01 -0.1287407E-05  0.1000000E-09  0.1000000E-04  0.1428254E-13  0.2158728E-11  0.4529735E-13  0.7668792E-02
  0.3611056E+01 -0.1287407E-05  0.1000000E-09  0.1000000E-04  0.1428254E-13  0.2158728E-11  0.4529735E-13  0.7668792E-02
  0.3729499E+01 -0.1287407E-05  0.1000000E-09  0.1000000E-04  0.1428254E-13  0.2158728E-11  0.4529735E-13  0.7668792E-02
  0.3777485E+01 -0.1287407E-05  0.1000000E-09  0.1000000E-04  0.1428254E-13  0.2158728E-11  0.4529735E-13  0.7668792E-02
  0.3808017E+01 -0.1287407E-05  0.1000000E-09  0.1000000E-04  0.1428254E-13  0.2158728E-11  0.4529735E-13  0.7668792E-02
  0.3844142E+01 -0.1287407E-05  0.1000000E-09  0.1000000E-04  0.1428254E-13  0.2158728E-11  0.4529735E-13  0.7668792E-02
  0.3899324E+01 -0.1287407E-05  0.1000000E-09  0.1000000E-04  0.1428254E-13  0.2158728E-11  0.4529735E-13  0.7668792E-02
  0.3983617E+01 -0.1287407E-05  0.1000000E-09  0.1000000E-04  0.1428254E-13  0.2158728E-11  0.4529735E-13  0.7668792E-02
  0.4100444E+01 -0.1287407E-05  0.1000000E-09  0.1000000E-04  0.1428254E-13  0.2158728E-11  0.4529735E-13  0.7668792E-02
  0.4144542E+01 -0.1287407E-05  0.1000000E-09  0.1000000E-04  0.1428254E-13  0.2158728E-11  0.4529735E-13  0.7668792E-02
  0.4177237E+01 -0.1287407E-05  0.1000000E-09  0.1000000E-04  0.1428254E-13  0.2158728E-11  0.4529735E-13  0.7668792E-02
  0.4215923E+01 -0.1287407E-05  0.1000000E-09  0.1000000E-04  0.1428254E-13  0.2158728E-11  0.4529735E-13  0.7668792E-02
  0.4275017E+01 -0.1287407E-05  0.1000000E-09  0.1000000E-04  0.1428254E-13  0.2158728E-11  0.4529735E-13  0.7668792E-02
  0.4365285E+01 -0.1287407E-05  0.1000000E-09  0.1000000E-04  0.1428254E-13  0.2158728E-11  0.4529735E-13  0.7668792E-02
  0.4475502E+01 -0.1287407E-05  0.1000000E-09  0.1000000E-04  0.1428254E-13  0.2158728E-11  0.4529735E-13  0.7668792E-02
  0.4509476E+01 -0.1287407E-05  0.1000000E-09  0.1000000E-04  0.1428254E-13  0.2158728E-11  0.4529735E-13  0.7668792E-02
  0.4549673E+01 -0.1287407E-05  0.1000000E-09  0.1000000E-04  0.1428254E-13  0.2158728E-11  0.4529735E-13  0.7668792E-02
  0.4597236E+01 -0.1287407E-05  0.1000000E-09  0.1000000E-04  0.1428254E-13  0.2158728E-11  0.4529735E-13  0.7668792E-02
  0.4664500E+01 -0.1287407E-05  0.1000000E-09  0.1000000E-04  0.1428254E-13  0.2158728E-11  0.4529735E-13  0.7668792E-02
  0.4767247E+01 -0.1287407E-05  0.1000000E-09  0.1000000E-04  0.1428254E-13  0.2158728E-11  0.4529735E-13  0.7668792E-02
  0.4862689E+01 -0.1287407E-05  0.1000000E-09  0.1000000E-04  0.1428254E-13  0.2158728E-11  0.4529735E-13  0.7668792E-02
  0.4891920E+01 -0.1287407E-05  0.1000000E-09  0.1000000E-04  0.1428254E-13  0.2158728E-11  0.4529735E-13  0.7668792E-02
  0.4933258E+01 -0.1287407E-05  0.1000000E-09  0.1000000E-04  0.1428254E-13  0.2158728E-11  0.4529735E-13  0.7668792E-02
  0.4991720E+01 -0.1287407E-05  0.1000000E-09  0.1000000E-04  0.1428254E-13  0.2158728E-11  0.4529735E-13  0.7668792E-02
  0.5081021E+01 -0.1287407E-05  0.1000000E-09  0.1000000E-04  0.1428254E-13  0.2158728E-11  0.4529735E-13  0.7668792E-02
  0.5202434E+01 -0.1287407E-05  0.1000000E-09  0.1000000E-04  0.1428254E-13  0.2158728E-11  0.4529735E-13  0.7668792E-02
  0.5248016E+01 -0.1287407E-05  0.1000000E-09  0.1000000E-04  0.1428254E-13  0.2158728E-11  0.4529735E-13  0.7668792E-02
  0.5280706E+01 -0.1287407E-05  0.1000000E-09  0.1000000E-04  0.1428254E-13  0.2158728E-11  0.4529735E-13  0.7668792E-02
  0.5319386E+01 -0.1287407E-05  0.1000000E-09  0.1000000E-04  0.1428254E-13  0.2158728E-11  0.4529735E-13  0.7668792E-02
  0.5378470E+01 -0.1287407E-05  0.1000000E-09  0.1000000E-04  0.1428254E-13  0.2158728E-11  0.4529735E-13  0.7668792E-02
  0.5468723E+01 -0.1287407E-05  0.1000000E-09  0.1000000E-04  0.1428254E-13  0.2158728E-11  0.4529735E-13  0.7668792E-02
  0.5578915E+01 -0.1287407E-05  0.1000000E-09  0.1000000E-04  0.1428254E-13  0.2158728E-11  0.4529735E-13  0.7668792E-02
  0.5612803E+01 -0.1287407E-05  0.1000000E-09  0.1000000E-04  0.1428254E-13  0.2158728E-11  0.4529735E-13  0.7668792E-02
  0.5655069E+01 -0.1287407E-05  0.1000000E-09  0.1000000E-04  0.1428254E-13  0.2158728E-11  0.4529735E-13  0.7668792E-02
  0.5705078E+01 -0.1287407E-05  0.1000000E-09  0.1000000E-04  0.1428254E-13  0.2158728E-11  0.4529735E-13  0.7668792E-02
  0.5775802E+01 -0.1287407E-05  0.1000000E-09  0.1000000E-04  0.1428254E-13  0.2158728E-11  0.4529735E-13  0.7668792E-02
  0.5883835E+01 -0.1287407E-05  0.1000000E-09  0.1000000E-04  0.1428254E-13  0.2158728E-11  0.4529735E-13  0.7668792E-02
  0.5973594E+01 -0.1287407E-05  0.1000000E-09  0.1000000E-04  0.1428254E-13  0.2158728E-11  0.4529735E-13  0.7668792E-02
  0.6002130E+01 -0.1287407E-05  0.1000000E-09  0.1000000E-04  0.1428254E-13  0.2158728E-11  0.4529735E-13  0.7668792E-02
  0.6042487E+01 -0.1287407E-05  0.1000000E-09  0.1000000E-04  0.1428254E-13  0.2158728E-11  0.4529735E-13  0.7668792E-02
  0.6099560E+01 -0.1287407E-05  0.1000000E-09  0.1000000E-04  0.1428254E-13  0.2158728E-11  0.4529735E-13  0.7668792E-02
  0.6186740E+01 -0.1287407E-05  0.1000000E-09  0.1000000E-04  0.1428254E-13  0.2158728E-11  0.4529735E-13  0.7668792E-02
  0.6306490E+01 -0.1287407E-05  0.1000000E-09  0.1000000E-04  0.1428254E-13  0.2158728E-11  0.4529735E-13  0.7668792E-02
  0.6351627E+01 -0.1287407E-05  0.1000000E-09  0.1000000E-04  0.1428254E-13  0.2158728E-11  0.4529735E-13  0.7668792E-02
  0.6384293E+01 -0.1287407E-05  0.1000000E-09  0.1000000E-04  0.1428254E-13  0.2158728E-11  0.4529735E-13  0.7668792E-02
  0.6422944E+01 -0.1287407E-05  0.1000000E-09  0.1000000E-04  0.1428254E-13  0.2158728E-11  0.4529735E-13  0.7668792E-02
  0.6481984E+01 -0.1287407E-05  0.1000000E-09  0.1000000E-04  0.1428254E-13  0.2158728E-11  0.4529735E-13  0.7668792E-02
  0.6572170E+01 -0.1287407E-05  0.1000000E-09  0.1000000E-04  0.1428254E-13  0.2158728E-11  0.4529735E-13  0.7668792E-02
  0.6682725E+01 -0.1287407E-05  0.1000000E-09  0.1000000E-04  0.1428254E-13  0.2158728E-11  0.4529735E-13  0.7668792E-02
  0.6716778E+01 -0.1287407E-05  0.1000000E-09  0.1000000E-04  0.1428254E-13  0.2158728E-11  0.4529735E-13  0.7668792E-02
  0.6757071E+01 -0.1287407E-05  0.1000000E-09  0.1000000E-04  0.1428254E-13  0.2158728E-11  0.4529735E-13  0.7668792E-02
  0.6804745E+01 -0.1287407E-05  0.1000000E-09  0.1000000E-04  0.1428254E-13  0.2158728E-11  0.4529735E-13  0.7668792E-02
  0.6872167E+01 -0.1287407E-05  0.1000000E-09  0.1000000E-04  0.1428254E-13  0.2158728E-11  0.4529735E-13  0.7668792E-02
  0.6975155E+01 -0.1287407E-05  0.1000000E-09  0.1000000E-04  0.1428254E-13  0.2158728E-11  0.4529735E-13  0.7668792E-02
  0.7070782E+01 -0.1287407E-05  0.1000000E-09  0.1000000E-04  0.1428254E-13  0.2158728E-11  0.4529735E-13  0.7668792E-02
  0.7100101E+01 -0.1287407E-05  0.1000000E-09  0.1000000E-04  0.1428254E-13  0.2158728E-11  0.4529735E-13  0.7668792E-02
  0.7141562E+01 -0.1287407E-05  0.1000000E-09  0.1000000E-04  0.1428254E-13  0.2158728E-11  0.4529735E-13  0.7668792E-02
  0.7200198E+01 -0.1287407E-05  0.1000000E-09  0.1000000E-04  0.1428254E-13  0.2158728E-11  0.4529735E-13  0.7668792E-02
  0.7289767E+01 -0.1287407E-05  0.1000000E-09  0.1000001E-04  0.1428254E-13  0.2158728E-11  0.4529735E-13  0.7668792E-02
  0.7411103E+01 -0.1287407E-05  0.1000000E-09  0.1000002E-04  0.1428254E-13  0.2158728E-11  0.4529735E-13  0.7668792E-02
  0.7433474E+01 -0.1287407E-05  0.1000000E-09  0.1000002E-04  0.1428254E-13  0.2158728E-11  0.4529735E-13  0.7668792E-02
  0.7453537E+01 -0.1287407E-05  0.1000000E-09  0.1000003E-04  0.1428254E-13  0.2158728E-11  0.4529735E-13  0.7668792E-02
  0.7478560E+01 -0.1287407E-05  0.1000000E-09  0.1000003E-04  0.1428254E-13  0.2158728E-11  0.4529735E-13  0.7668792E-02
  0.7513949E+01 -0.1287407E-05  0.1000000E-09  0.1000004E-04  0.1428254E-13  0.2158728E-11  0.4529735E-13  0.7668792E-02
  0.7568005E+01 -0.1287407E-05  0.1000000E-09  0.1000006E-04  0.1428254E-13  0.2158728E-11  0.4529735E-13  0.7668792E-02
  0.7650577E+01 -0.1287407E-05  0.1000000E-09  0.1000010E-04  0.1428254E-13  0.2158728E-11  0.4529735E-13  0.7668792E-02
  0.7774214E+01 -0.1287407E-05  0.1000000E-09  0.1000025E-04  0.1428254E-13  0.2158728E-11  0.4529735E-13  0.7668792E-02
  0.7801026E+01 -0.1287407E-05  0.1000000E-09  0.1000029E-04  0.1428254E-13  0.2158729E-11  0.4529735E-13  0.7668792E-02
  0.7817960E+01 -0.1287407E-05  0.1000000E-09  0.1000031E-04  0.1428254E-13  0.2158729E-11  0.4529735E-13  0.7668792E-02
  0.7840362E+01 -0.1287407E-05  0.1000000E-09  0.1000035E-04  0.1428254E-13  0.2158729E-11  0.4529735E-13  0.7668792E-02
  0.7872042E+01 -0.1287407E-05  0.1000000E-09  0.1000042E-04  0.1428254E-13  0.2158729E-11  0.4529735E-13  0.7668792E-02
  0.7920435E+01 -0.1287407E-05  0.1000000E-09  0.1000055E-04  0.1428255E-13  0.2158729E-11  0.4529735E-13  0.7668792E-02
  0.7994356E+01 -0.1287407E-05  0.1000000E-09  0.1000085E-04  0.1428255E-13  0.2158729E-11  0.4529735E-13  0.7668792E-02
  0.8098895E+01 -0.1287407E-05  0.1000000E-09  0.1000168E-04  0.1428255E-13  0.2158730E-11  0.4529735E-13  0.7668792E-02
  0.8184226E+01 -0.1287408E-05  0.1000000E-09  0.1000277E-04  0.1428257E-13  0.2158732E-11  0.4529735E-13  0.7668792E-02
  0.8212190E+01 -0.1287408E-05  0.1000000E-09  0.1000318E-04  0.1428258E-13  0.2158735E-11  0.4529735E-13  0.7668792E-02
  0.8251736E+01 -0.1287408E-05  0.1000000E-09  0.1000389E-04  0.1428258E-13  0.2158736E-11  0.4529735E-13  0.7668792E-02
  0.8307663E+01 -0.1287408E-05  0.1000000E-09  0.1000521E-04  0.1428260E-13  0.2158738E-11  0.4529735E-13  0.7668792E-02
  0.8393092E+01 -0.1287409E-05  0.1000000E-09  0.1000841E-04  0.1428262E-13  0.2158742E-11  0.4529735E-13  0.7668792E-02
  0.8513747E+01 -0.1287410E-05  0.1000000E-09  0.1001742E-04  0.1428268E-13  0.2158752E-11  0.4529735E-13  0.7668792E-02
  0.8561374E+01 -0.1287413E-05  0.1000000E-09  0.1002188E-04  0.1428279E-13  0.2158773E-11  0.4529735E-13  0.7668792E-02
  0.8592548E+01 -0.1287414E-05  0.1000000E-09  0.1002522E-04  0.1428284E-13  0.2158783E-11  0.4529735E-13  0.7668792E-02
  0.8629433E+01 -0.1287415E-05  0.1000000E-09  0.1002987E-04  0.1428289E-13  0.2158792E-11  0.4529735E-13  0.7668792E-02
  0.8685777E+01 -0.1287417E-05  0.1000000E-09  0.1003903E-04  0.1428297E-13  0.2158805E-11  0.4529735E-13  0.7668792E-02
  0.8771843E+01 -0.1287420E-05  0.1000000E-09  0.1006010E-04  0.1428312E-13  0.2158832E-11  0.4529736E-13  0.7668792E-02
  0.8886253E+01 -0.1287427E-05  0.1000000E-09  0.1010931E-04  0.1428347E-13  0.2158894E-11  0.4529736E-13  0.7668792E-02
  0.8925122E+01 -0.1287443E-05  0.1000000E-09  0.1012901E-04  0.1428406E-13  0.2159005E-11  0.4529737E-13  0.7668792E-02
  0.8959888E+01 -0.1287449E-05  0.1000000E-09  0.1014923E-04  0.1428433E-13  0.2159054E-11  0.4529737E-13  0.7668792E-02
  0.9001024E+01 -0.1287456E-05  0.1000000E-09  0.1017738E-04  0.1428462E-13  0.2159106E-11  0.4529737E-13  0.7668792E-02
  0.9059199E+01 -0.1287465E-05  0.1000000E-09  0.1022776E-04  0.1428505E-13  0.2159184E-11  0.4529738E-13  0.7668792E-02
  0.9148062E+01 -0.1287482E-05  0.1000000E-09  0.1033968E-04  0.1428588E-13  0.2159329E-11  0.4529739E-13  0.7668792E-02
  0.9258893E+01 -0.1287518E-05  0.1000000E-09  0.1056323E-04  0.1428764E-13  0.2159643E-11  0.4529741E-13  0.7668792E-02
  0.9293281E+01 -0.1287590E-05  0.1000000E-09  0.1064217E-04  0.1429027E-13  0.2160135E-11  0.4529744E-13  0.7668792E-02
  0.9333970E+01 -0.1287615E-05  0.1000000E-09  0.1075003E-04  0.1429139E-13  0.2160337E-11  0.4529746E-13  0.7668791E-02
  0.9382113E+01 -0.1287649E-05  0.1000000E-09  0.1090146E-04  0.1429291E-13  0.2160612E-11  0.4529748E-13  0.7668791E-02
  0.9450198E+01 -0.1287697E-05  0.1000000E-09  0.1117530E-04  0.1429519E-13  0.2161018E-11  0.4529750E-13  0.7668791E-02
  0.9554200E+01 -0.1287783E-05  0.1000000E-09  0.1179121E-04  0.1429957E-13  0.2161790E-11  0.4529756E-13  0.7668791E-02
  0.9648911E+01 -0.1287972E-05  0.1000000E-09  0.1257510E-04  0.1430787E-13  0.2163290E-11  0.4529766E-13  0.7668791E-02
  0.9678119E+01 -0.1288207E-05  0.1000000E-09  0.1284087E-04  0.1431644E-13  0.2164897E-11  0.4529776E-13  0.7668790E-02
  0.9719426E+01 -0.1288284E-05  0.1000000E-09  0.1326781E-04  0.1432010E-13  0.2165549E-11  0.4529780E-13  0.7668790E-02
  0.9777842E+01 -0.1288407E-05  0.1000000E-09  0.1399228E-04  0.1432601E-13  0.2166601E-11  0.4529787E-13  0.7668789E-02
  0.9867074E+01 -0.1288612E-05  0.1000000E-09  0.1546094E-04  0.1433645E-13  0.2168442E-11  0.4529800E-13  0.7668789E-02
  0.9988137E+01 -0.1289010E-05  0.1000000E-09  0.1838179E-04  0.1435696E-13  0.2172052E-11  0.4529824E-13  0.7668788E-02
  0.1000000E+02 -0.1289754E-05  0.1000000E-09  0.1867976E-04  0.1438288E-13  0.2176960E-11  0.4529852E-13  0.7668785E-02
  0.1001369E+02 -0.1289827E-05  0.1000000E-09  0.1903607E-04  0.1438618E-13  0.2177553E-11  0.4529856E-13  0.7668785E-02
  0.1003305E+02 -0.1289912E-05  0.1000000E-09  0.1956598E-04  0.1439035E-13  0.2178294E-11  0.4529861E-13  0.7668785E-02
  0.1005867E+02 -0.1290038E-05  0.1000000E-09  0.2031547E-04  0.1439641E-13  0.2179373E-11  0.4529868E-13  0.7668784E-02
  0.1009489E+02 -0.1290214E-05  0.1000000E-09  0.2148115E-04  0.1440513E-13  0.2180917E-11  0.4529878E-13  0.7668784E-02
  0.1015022E+02 -0.1290480E-05  0.1000000E-09  0.2354248E-04  0.1441907E-13  0.2183364E-11  0.4529893E-13  0.7668783E-02
  0.1023474E+02 -0.1290933E-05  0.1000000E-09  0.2748515E-04  0.1444382E-13  0.2187684E-11  0.4529921E-13  0.7668781E-02
  0.1035461E+02 -0.1291747E-05  0.1000000E-09  0.3514394E-04  0.1448963E-13  0.2195644E-11  0.4529971E-13  0.7668778E-02
  0.1040163E+02 -0.1293184E-05  0.1000000E-09  0.3851499E-04  0.1454627E-13  0.2206106E-11  0.4530027E-13  0.7668771E-02
  0.1043305E+02 -0.1293766E-05  0.1000000E-09  0.4093233E-04  0.1457169E-13  0.2210712E-11  0.4530052E-13  0.7668769E-02
  0.1047023E+02 -0.1294166E-05  0.1000000E-09  0.4403768E-04  0.1459259E-13  0.2214387E-11  0.4530072E-13  0.7668767E-02
  0.1052701E+02 -0.1294663E-05  0.1000000E-09  0.4941389E-04  0.1462209E-13  0.2219475E-11  0.4530102E-13  0.7668764E-02
  0.1061375E+02 -0.1295482E-05  0.1000000E-09  0.5934224E-04  0.1467318E-13  0.2228229E-11  0.4530152E-13  0.7668760E-02
  0.1072773E+02 -0.1296885E-05  0.1000000E-09  0.7593807E-04  0.1475951E-13  0.2243051E-11  0.4530234E-13  0.7668752E-02
  0.1076541E+02 -0.1299000E-05  0.1000000E-09  0.8186454E-04  0.1484475E-13  0.2258749E-11  0.4530298E-13  0.7668738E-02
  0.1080162E+02 -0.1299695E-05  0.1000000E-09  0.8795152E-04  0.1488238E-13  0.2265333E-11  0.4530329E-13  0.7668733E-02
  0.1084446E+02 -0.1300381E-05  0.1000000E-09  0.9573674E-04  0.1492362E-13  0.2272441E-11  0.4530363E-13  0.7668728E-02
  0.1090504E+02 -0.1301223E-05  0.1000000E-09  0.1080065E-03  0.1498042E-13  0.2282083E-11  0.4530411E-13  0.7668722E-02
  0.1099758E+02 -0.1302481E-05  0.1000000E-09  0.1300231E-03  0.1507355E-13  0.2297709E-11  0.4530489E-13  0.7668712E-02
  0.1110475E+02 -0.1304571E-05  0.1000000E-09  0.1604315E-03  0.1521350E-13  0.2321487E-11  0.4530595E-13  0.7668694E-02
  0.1113698E+02 -0.1307201E-05  0.1000000E-09  0.1700753E-03  0.1532350E-13  0.2341636E-11  0.4530642E-13  0.7668669E-02
  0.1118257E+02 -0.1307973E-05  0.1000000E-09  0.1846415E-03  0.1538241E-13  0.2351491E-11  0.4530684E-13  0.7668661E-02
  0.1123942E+02 -0.1309099E-05  0.1000000E-09  0.2043321E-03  0.1546460E-13  0.2365312E-11  0.4530738E-13  0.7668649E-02
  0.1131982E+02 -0.1310548E-05  0.1000000E-09  0.2353962E-03  0.1558289E-13  0.2384950E-11  0.4530819E-13  0.7668633E-02
  0.1144263E+02 -0.1312689E-05  0.1000000E-09  0.2907927E-03  0.1577807E-13  0.2416976E-11  0.4530954E-13  0.7668607E-02
  0.1151014E+02 -0.1316215E-05  0.1000000E-09  0.3238141E-03  0.1596743E-13  0.2450220E-11  0.4531008E-13  0.7668562E-02
  0.1153782E+02 -0.1318156E-05  0.1000000E-09  0.3377863E-03  0.1606200E-13  0.2467101E-11  0.4531017E-13  0.7668534E-02
  0.1157444E+02 -0.1318938E-05  0.1000000E-09  0.3569869E-03  0.1612989E-13  0.2478299E-11  0.4531052E-13  0.7668523E-02
  0.1163037E+02 -0.1319982E-05  0.1000000E-09  0.3880098E-03  0.1623213E-13  0.2494956E-11  0.4531110E-13  0.7668507E-02
  0.1171581E+02 -0.1321608E-05  0.1000000E-09  0.4393713E-03  0.1639729E-13  0.2521769E-11  0.4531203E-13  0.7668482E-02
  0.1183076E+02 -0.1324162E-05  0.1000000E-09  0.5155022E-03  0.1664504E-13  0.2562151E-11  0.4531324E-13  0.7668440E-02
  0.1187046E+02 -0.1327731E-05  0.1000000E-09  0.5427269E-03  0.1681763E-13  0.2593031E-11  0.4531280E-13  0.7668377E-02
  0.1190381E+02 -0.1328931E-05  0.1000000E-09  0.5661608E-03  0.1690609E-13  0.2607894E-11  0.4531293E-13  0.7668355E-02
  0.1194328E+02 -0.1329933E-05  0.1000000E-09  0.5946510E-03  0.1699882E-13  0.2623077E-11  0.4531323E-13  0.7668336E-02
  0.1199909E+02 -0.1331118E-05  0.1000000E-09  0.6364175E-03  0.1712527E-13  0.2643495E-11  0.4531374E-13  0.7668312E-02
  0.1208435E+02 -0.1332799E-05  0.1000000E-09  0.7034273E-03  0.1732021E-13  0.2674732E-11  0.4531459E-13  0.7668278E-02
  0.1219910E+02 -0.1335385E-05  0.1000000E-09  0.7987031E-03  0.1760141E-13  0.2720016E-11  0.4531557E-13  0.7668223E-02
  0.1223849E+02 -0.1338912E-05  0.1000000E-09  0.8320799E-03  0.1777937E-13  0.2751651E-11  0.4531445E-13  0.7668145E-02
  0.1227064E+02 -0.1340084E-05  0.1000000E-09  0.8596703E-03  0.1787266E-13  0.2767166E-11  0.4531440E-13  0.7668117E-02
  0.1230868E+02 -0.1341028E-05  0.1000000E-09  0.8927473E-03  0.1797007E-13  0.2782921E-11  0.4531457E-13  0.7668095E-02
  0.1236680E+02 -0.1342132E-05  0.1000000E-09  0.9441549E-03  0.1810990E-13  0.2805127E-11  0.4531504E-13  0.7668068E-02
  0.1245557E+02 -0.1343804E-05  0.1000000E-09  0.1024292E-02  0.1832534E-13  0.2839275E-11  0.4531573E-13  0.7668025E-02
  0.1256966E+02 -0.1346328E-05  0.1000000E-09  0.1128884E-02  0.1861456E-13  0.2885531E-11  0.4531627E-13  0.7667960E-02
  0.1260621E+02 -0.1349533E-05  0.1000000E-09  0.1162627E-02  0.1877693E-13  0.2914389E-11  0.4531458E-13  0.7667874E-02
  0.1264744E+02 -0.1350516E-05  0.1000000E-09  0.1200752E-02  0.1888283E-13  0.2931411E-11  0.4531461E-13  0.7667846E-02
  0.1269395E+02 -0.1351609E-05  0.1000000E-09  0.1243777E-02  0.1900143E-13  0.2950455E-11  0.4531464E-13  0.7667815E-02
  0.1275973E+02 -0.1352812E-05  0.1000000E-09  0.1304435E-02  0.1915827E-13  0.2975233E-11  0.4531492E-13  0.7667779E-02
  0.1286021E+02 -0.1354467E-05  0.1000000E-09  0.1395938E-02  0.1938907E-13  0.3011480E-11  0.4531542E-13  0.7667730E-02
  0.1295804E+02 -0.1356918E-05  0.1000000E-09  0.1483355E-02  0.1963237E-13  0.3050826E-11  0.4531499E-13  0.7667654E-02
  0.1298778E+02 -0.1359215E-05  0.1000000E-09  0.1509821E-02  0.1974871E-13  0.3071505E-11  0.4531330E-13  0.7667583E-02
  0.1302984E+02 -0.1359879E-05  0.1000000E-09  0.1546791E-02  0.1984025E-13  0.3085872E-11  0.4531340E-13  0.7667561E-02
  0.1308933E+02 -0.1360795E-05  0.1000000E-09  0.1598059E-02  0.1996674E-13  0.3105712E-11  0.4531353E-13  0.7667531E-02
  0.1317346E+02 -0.1362047E-05  0.1000000E-09  0.1668242E-02  0.2013915E-13  0.3132743E-11  0.4531366E-13  0.7667489E-02
  0.1329243E+02 -0.1363727E-05  0.1000000E-09  0.1762104E-02  0.2036866E-13  0.3168721E-11  0.4531377E-13  0.7667431E-02
  0.1334976E+02 -0.1365964E-05  0.1000000E-09  0.1806094E-02  0.2051406E-13  0.3193488E-11  0.4531214E-13  0.7667354E-02
  0.1337771E+02 -0.1366991E-05  0.1000000E-09  0.1827226E-02  0.2058237E-13  0.3205080E-11  0.4531138E-13  0.7667318E-02