title = "dataset surfx"
variables = "x","y","z","pH","ionic strength", "C-Alk [eq/L]","NC-Alk [eq/L]","Alk [eq/L]","C-Alk [mg/L CaCO_3]","NC-Alk [mg/L CACO_3]","Alk [mg/L CaCO_3]","temperature"
zone t = "Master variables, T =  2.000E+01 hours", i =  101, j =    1, k =    1,  f=point
  0.0000000E+00  0.0000000E+00  0.0000000E+00  0.3000000E+01  0.7938772E-02  0.0000000E+00  0.0000000E+00  0.0000000E+00  0.0000000E+00  0.0000000E+00  0.0000000E+00  0.2500000E+02
  0.0000000E+00  0.0000000E+00  0.1600000E+00  0.3000000E+01  0.7938772E-02  0.0000000E+00  0.0000000E+00  0.0000000E+00  0.0000000E+00  0.0000000E+00  0.0000000E+00  0.2500000E+02
  0.0000000E+00  0.0000000E+00  0.3200000E+00  0.3000000E+01  0.7938772E-02  0.0000000E+00  0.0000000E+00  0.0000000E+00  0.0000000E+00  0.0000000E+00  0.0000000E+00  0.2500000E+02
  0.0000000E+00  0.0000000E+00  0.4800000E+00  0.3000000E+01  0.7938772E-02  0.0000000E+00  0.0000000E+00  0.0000000E+00  0.0000000E+00  0.0000000E+00  0.0000000E+00  0.2500000E+02
  0.0000000E+00  0.0000000E+00  0.6400000E+00  0.3000000E+01  0.7938772E-02  0.0000000E+00  0.0000000E+00  0.0000000E+00  0.0000000E+00  0.0000000E+00  0.0000000E+00  0.2500000E+02
  0.0000000E+00  0.0000000E+00  0.8000000E+00  0.3000000E+01  0.7938772E-02  0.0000000E+00  0.0000000E+00  0.0000000E+00  0.0000000E+00  0.0000000E+00  0.0000000E+00  0.2500000E+02
  0.0000000E+00  0.0000000E+00  0.9600000E+00  0.3000000E+01  0.7938772E-02  0.0000000E+00  0.0000000E+00  0.0000000E+00  0.0000000E+00  0.0000000E+00  0.0000000E+00  0.2500000E+02
  0.0000000E+00  0.0000000E+00  0.1120000E+01  0.3000000E+01  0.7938772E-02  0.0000000E+00  0.0000000E+00  0.0000000E+00  0.0000000E+00  0.0000000E+00  0.0000000E+00  0.2500000E+02
  0.0000000E+00  0.0000000E+00  0.1280000E+01  0.3000000E+01  0.7938772E-02  0.0000000E+00  0.0000000E+00  0.0000000E+00  0.0000000E+00  0.0000000E+00  0.0000000E+00  0.2500000E+02
  0.0000000E+00  0.0000000E+00  0.1440000E+01  0.3000000E+01  0.7938772E-02  0.0000000E+00  0.0000000E+00  0.0000000E+00  0.0000000E+00  0.0000000E+00  0.0000000E+00  0.2500000E+02
  0.0000000E+00  0.0000000E+00  0.1600000E+01  0.3000000E+01  0.7938772E-02  0.0000000E+00  0.0000000E+00  0.0000000E+00  0.0000000E+00  0.0000000E+00  0.0000000E+00  0.2500000E+02
  0.0000000E+00  0.0000000E+00  0.1760000E+01  0.3000000E+01  0.7938772E-02  0.0000000E+00  0.0000000E+00  0.0000000E+00  0.0000000E+00  0.0000000E+00  0.0000000E+00  0.2500000E+02
  0.0000000E+00  0.0000000E+00  0.1920000E+01  0.3000004E+01  0.7938777E-02  0.0000000E+00  0.0000000E+00  0.0000000E+00  0.0000000E+00  0.0000000E+00  0.0000000E+00  0.2500000E+02
  0.0000000E+00  0.0000000E+00  0.2080000E+01  0.3000089E+01  0.7938874E-02  0.0000000E+00  0.0000000E+00  0.0000000E+00  0.0000000E+00  0.0000000E+00  0.0000000E+00  0.2500000E+02
  0.0000000E+00  0.0000000E+00  0.2240000E+01  0.3001596E+01  0.7940606E-02  0.0000000E+00  0.0000000E+00  0.0000000E+00  0.0000000E+00  0.0000000E+00  0.0000000E+00  0.2500000E+02
  0.0000000E+00  0.0000000E+00  0.2400000E+01  0.3022788E+01  0.7964338E-02  0.0000000E+00  0.0000000E+00  0.0000000E+00  0.0000000E+00  0.0000000E+00  0.0000000E+00  0.2500000E+02
  0.0000000E+00  0.0000000E+00  0.2560000E+01  0.3555907E+01  0.8300596E-02  0.0000000E+00  0.0000000E+00  0.0000000E+00  0.0000000E+00  0.0000000E+00  0.0000000E+00  0.2500000E+02
  0.0000000E+00  0.0000000E+00  0.2720000E+01  0.3696970E+01  0.8337615E-02  0.0000000E+00  0.0000000E+00  0.0000000E+00  0.0000000E+00  0.0000000E+00  0.0000000E+00  0.2500000E+02
  0.0000000E+00  0.0000000E+00  0.2880000E+01  0.3698086E+01  0.8339320E-02  0.0000000E+00  0.0000000E+00  0.0000000E+00  0.0000000E+00  0.0000000E+00  0.0000000E+00  0.2500000E+02
  0.0000000E+00  0.0000000E+00  0.3040000E+01  0.3698089E+01  0.8339492E-02  0.0000000E+00  0.0000000E+00  0.0000000E+00  0.0000000E+00  0.0000000E+00  0.0000000E+00  0.2500000E+02
  0.0000000E+00  0.0000000E+00  0.3200000E+01  0.3698104E+01  0.8339488E-02  0.0000000E+00  0.0000000E+00  0.0000000E+00  0.0000000E+00  0.0000000E+00  0.0000000E+00  0.2500000E+02
  0.0000000E+00  0.0000000E+00  0.3360000E+01  0.3698089E+01  0.8339445E-02  0.0000000E+00  0.0000000E+00  0.0000000E+00  0.0000000E+00  0.0000000E+00  0.0000000E+00  0.2500000E+02
  0.0000000E+00  0.0000000E+00  0.3520000E+01  0.3698093E+01  0.8339336E-02  0.0000000E+00  0.0000000E+00  0.0000000E+00  0.0000000E+00  0.0000000E+00  0.0000000E+00  0.2500000E+02
  0.0000000E+00  0.0000000E+00  0.3680000E+01  0.3698093E+01  0.8339178E-02  0.0000000E+00  0.0000000E+00  0.0000000E+00  0.0000000E+00  0.0000000E+00  0.0000000E+00  0.2500000E+02
  0.0000000E+00  0.0000000E+00  0.3840000E+01  0.3698124E+01  0.8338967E-02  0.0000000E+00  0.0000000E+00  0.0000000E+00  0.0000000E+00  0.0000000E+00  0.0000000E+00  0.2500000E+02
  0.0000000E+00  0.0000000E+00  0.4000000E+01  0.3698154E+01  0.8338790E-02  0.0000000E+00  0.0000000E+00  0.0000000E+00  0.0000000E+00  0.0000000E+00  0.0000000E+00  0.2500000E+02
  0.0000000E+00  0.0000000E+00  0.4160000E+01  0.3698157E+01  0.8338758E-02  0.0000000E+00  0.0000000E+00  0.0000000E+00  0.0000000E+00  0.0000000E+00  0.0000000E+00  0.2500000E+02
  0.0000000E+00  0.0000000E+00  0.4320000E+01  0.3698161E+01  0.8338772E-02  0.0000000E+00  0.0000000E+00  0.0000000E+00  0.0000000E+00  0.0000000E+00  0.0000000E+00  0.2500000E+02
  0.0000000E+00  0.0000000E+00  0.4480000E+01  0.3698109E+01  0.8338837E-02  0.0000000E+00  0.0000000E+00  0.0000000E+00  0.0000000E+00  0.0000000E+00  0.0000000E+00  0.2500000E+02
  0.0000000E+00  0.0000000E+00  0.4640000E+01  0.3698128E+01  0.8338951E-02  0.0000000E+00  0.0000000E+00  0.0000000E+00  0.0000000E+00  0.0000000E+00  0.0000000E+00  0.2500000E+02
  0.0000000E+00  0.0000000E+00  0.4800000E+01  0.3698115E+01  0.8339072E-02  0.0000000E+00  0.0000000E+00  0.0000000E+00  0.0000000E+00  0.0000000E+00  0.0000000E+00  0.2500000E+02
  0.0000000E+00  0.0000000E+00  0.4960000E+01  0.3698111E+01  0.8339165E-02  0.0000000E+00  0.0000000E+00  0.0000000E+00  0.0000000E+00  0.0000000E+00  0.0000000E+00  0.2500000E+02
  0.0000000E+00  0.0000000E+00  0.5120000E+01  0.3698114E+01  0.8339196E-02  0.0000000E+00  0.0000000E+00  0.0000000E+00  0.0000000E+00  0.0000000E+00  0.0000000E+00  0.2500000E+02
  0.0000000E+00  0.0000000E+00  0.5280000E+01  0.3698065E+01  0.8339186E-02  0.0000000E+00  0.0000000E+00  0.0000000E+00  0.0000000E+00  0.0000000E+00  0.0000000E+00  0.2500000E+02
  0.0000000E+00  0.0000000E+00  0.5440000E+01  0.3698156E+01  0.8339176E-02  0.0000000E+00  0.0000000E+00  0.0000000E+00  0.0000000E+00  0.0000000E+00  0.0000000E+00  0.2500000E+02
  0.0000000E+00  0.0000000E+00  0.5600000E+01  0.3698098E+01  0.8339140E-02  0.0000000E+00  0.0000000E+00  0.0000000E+00  0.0000000E+00  0.0000000E+00  0.0000000E+00  0.2500000E+02
  0.0000000E+00  0.0000000E+00  0.5760000E+01  0.3698330E+01  0.8339040E-02  0.0000000E+00  0.0000000E+00  0.0000000E+00  0.0000000E+00  0.0000000E+00  0.0000000E+00  0.2500000E+02
  0.0000000E+00  0.0000000E+00  0.5920000E+01  0.3701710E+01  0.8337749E-02  0.0000000E+00  0.0000000E+00  0.0000000E+00  0.0000000E+00  0.0000000E+00  0.0000000E+00  0.2500000E+02
  0.0000000E+00  0.0000000E+00  0.6080000E+01  0.3759038E+01  0.8318253E-02  0.0000000E+00  0.0000000E+00  0.0000000E+00  0.0000000E+00  0.0000000E+00  0.0000000E+00  0.2500000E+02
  0.0000000E+00  0.0000000E+00  0.6240000E+01  0.4532961E+01  0.8303179E-02  0.0000000E+00  0.0000000E+00  0.0000000E+00  0.0000000E+00  0.0000000E+00  0.0000000E+00  0.2500000E+02
  0.0000000E+00  0.0000000E+00  0.6400000E+01  0.4562685E+01  0.8303138E-02  0.0000000E+00  0.0000000E+00  0.0000000E+00  0.0000000E+00  0.0000000E+00  0.0000000E+00  0.2500000E+02
  0.0000000E+00  0.0000000E+00  0.6560000E+01  0.4562717E+01  0.8302904E-02  0.0000000E+00  0.0000000E+00  0.0000000E+00  0.0000000E+00  0.0000000E+00  0.0000000E+00  0.2500000E+02
  0.0000000E+00  0.0000000E+00  0.6720000E+01  0.4562690E+01  0.8302667E-02  0.0000000E+00  0.0000000E+00  0.0000000E+00  0.0000000E+00  0.0000000E+00  0.0000000E+00  0.2500000E+02
  0.0000000E+00  0.0000000E+00  0.6880000E+01  0.4562711E+01  0.8302700E-02  0.0000000E+00  0.0000000E+00  0.0000000E+00  0.0000000E+00  0.0000000E+00  0.0000000E+00  0.2500000E+02
  0.0000000E+00  0.0000000E+00  0.7040000E+01  0.4562668E+01  0.8302937E-02  0.0000000E+00  0.0000000E+00  0.0000000E+00  0.0000000E+00  0.0000000E+00  0.0000000E+00  0.2500000E+02
  0.0000000E+00  0.0000000E+00  0.7200000E+01  0.4562677E+01  0.8303229E-02  0.0000000E+00  0.0000000E+00  0.0000000E+00  0.0000000E+00  0.0000000E+00  0.0000000E+00  0.2500000E+02
  0.0000000E+00  0.0000000E+00  0.7360000E+01  0.4562695E+01  0.8303284E-02  0.0000000E+00  0.0000000E+00  0.0000000E+00  0.0000000E+00  0.0000000E+00  0.0000000E+00  0.2500000E+02
  0.0000000E+00  0.0000000E+00  0.7520000E+01  0.4562614E+01  0.8303266E-02  0.0000000E+00  0.0000000E+00  0.0000000E+00  0.0000000E+00  0.0000000E+00  0.0000000E+00  0.2500000E+02
  0.0000000E+00  0.0000000E+00  0.7680000E+01  0.4562722E+01  0.8303190E-02  0.0000000E+00  0.0000000E+00  0.0000000E+00  0.0000000E+00  0.0000000E+00  0.0000000E+00  0.2500000E+02
  0.0000000E+00  0.0000000E+00  0.7840000E+01  0.4562747E+01  0.8303117E-02  0.0000000E+00  0.0000000E+00  0.0000000E+00  0.0000000E+00  0.0000000E+00  0.0000000E+00  0.2500000E+02
  0.0000000E+00  0.0000000E+00  0.8000000E+01  0.4562804E+01  0.8303226E-02  0.0000000E+00  0.0000000E+00  0.0000000E+00  0.0000000E+00  0.0000000E+00  0.0000000E+00  0.2500000E+02
  0.0000000E+00  0.0000000E+00  0.8160000E+01  0.4563224E+01  0.8303647E-02  0.0000000E+00  0.0000000E+00  0.0000000E+00  0.0000000E+00  0.0000000E+00  0.0000000E+00  0.2500000E+02
  0.0000000E+00  0.0000000E+00  0.8320000E+01  0.4564819E+01  0.8299771E-02  0.0000000E+00  0.0000000E+00  0.0000000E+00  0.0000000E+00  0.0000000E+00  0.0000000E+00  0.2500000E+02
  0.0000000E+00  0.0000000E+00  0.8480000E+01  0.4571132E+01  0.8300498E-02  0.0000000E+00  0.0000000E+00  0.0000000E+00  0.0000000E+00  0.0000000E+00  0.0000000E+00  0.2500000E+02
  0.0000000E+00  0.0000000E+00  0.8640000E+01  0.4740550E+01  0.6444474E-02  0.0000000E+00  0.0000000E+00  0.0000000E+00  0.0000000E+00  0.0000000E+00  0.0000000E+00  0.2500000E+02
  0.0000000E+00  0.0000000E+00  0.8800000E+01  0.8077336E+01  0.5000650E-02  0.0000000E+00  0.0000000E+00  0.0000000E+00  0.0000000E+00  0.0000000E+00  0.0000000E+00  0.2500000E+02
  0.0000000E+00  0.0000000E+00  0.8960000E+01  0.8108001E+01  0.5000697E-02  0.0000000E+00  0.0000000E+00  0.0000000E+00  0.0000000E+00  0.0000000E+00  0.0000000E+00  0.2500000E+02
  0.0000000E+00  0.0000000E+00  0.9120000E+01  0.8108001E+01  0.5000697E-02  0.0000000E+00  0.0000000E+00  0.0000000E+00  0.0000000E+00  0.0000000E+00  0.0000000E+00  0.2500000E+02
  0.0000000E+00  0.0000000E+00  0.9280000E+01  0.8108001E+01  0.5000697E-02  0.0000000E+00  0.0000000E+00  0.0000000E+00  0.0000000E+00  0.0000000E+00  0.0000000E+00  0.2500000E+02
  0.0000000E+00  0.0000000E+00  0.9440000E+01  0.8108001E+01  0.5000697E-02  0.0000000E+00  0.0000000E+00  0.0000000E+00  0.0000000E+00  0.0000000E+00  0.0000000E+00  0.2500000E+02
  0.0000000E+00  0.0000000E+00  0.9600000E+01  0.8108001E+01  0.5000697E-02  0.0000000E+00  0.0000000E+00  0.0000000E+00  0.0000000E+00  0.0000000E+00  0.0000000E+00  0.2500000E+02
  0.0000000E+00  0.0000000E+00  0.9760000E+01  0.8108001E+01  0.5000697E-02  0.0000000E+00  0.0000000E+00  0.0000000E+00  0.0000000E+00  0.0000000E+00  0.0000000E+00  0.2500000E+02
  0.0000000E+00  0.0000000E+00  0.9920000E+01  0.8108001E+01  0.5000697E-02  0.0000000E+00  0.0000000E+00  0.0000000E+00  0.0000000E+00  0.0000000E+00  0.0000000E+00  0.2500000E+02
  0.0000000E+00  0.0000000E+00  0.1008000E+02  0.8108001E+01  0.5000697E-02  0.0000000E+00  0.0000000E+00  0.0000000E+00  0.0000000E+00  0.0000000E+00  0.0000000E+00  0.2500000E+02
  0.0000000E+00  0.0000000E+00  0.1024000E+02  0.8108001E+01  0.5000697E-02  0.0000000E+00  0.0000000E+00  0.0000000E+00  0.0000000E+00  0.0000000E+00  0.0000000E+00  0.2500000E+02
  0.0000000E+00  0.0000000E+00  0.1040000E+02  0.8108001E+01  0.5000697E-02  0.0000000E+00  0.0000000E+00  0.0000000E+00  0.0000000E+00  0.0000000E+00  0.0000000E+00  0.2500000E+02
  0.0000000E+00  0.0000000E+00  0.1056000E+02  0.8108001E+01  0.5000697E-02  0.0000000E+00  0.0000000E+00  0.0000000E+00  0.0000000E+00  0.0000000E+00  0.0000000E+00  0.2500000E+02
  0.0000000E+00  0.0000000E+00  0.1072000E+02  0.8108001E+01  0.5000697E-02  0.0000000E+00  0.0000000E+00  0.0000000E+00  0.0000000E+00  0.0000000E+00  0.0000000E+00  0.2500000E+02
  0.0000000E+00  0.0000000E+00  0.1088000E+02  0.8108001E+01  0.5000697E-02  0.0000000E+00  0.0000000E+00  0.0000000E+00  0.0000000E+00  0.0000000E+00  0.0000000E+00  0.2500000E+02
  0.0000000E+00  0.0000000E+00  0.1104000E+02  0.8108001E+01  0.5000697E-02  0.0000000E+00  0.0000000E+00  0.0000000E+00  0.0000000E+00  0.0000000E+00  0.0000000E+00  0.2500000E+02
  0.0000000E+00  0.0000000E+00  0.1120000E+02  0.8108001E+01  0.5000697E-02  0.0000000E+00  0.0000000E+00  0.0000000E+00  0.0000000E+00  0.0000000E+00  0.0000000E+00  0.2500000E+02
  0.0000000E+00  0.0000000E+00  0.1136000E+02  0.8108001E+01  0.5000697E-02  0.0000000E+00  0.0000000E+00  0.0000000E+00  0.0000000E+00  0.0000000E+00  0.0000000E+00  0.2500000E+02
  0.0000000E+00  0.0000000E+00  0.1152000E+02  0.8108001E+01  0.5000697E-02  0.0000000E+00  0.0000000E+00  0.0000000E+00  0.0000000E+00  0.0000000E+00  0.0000000E+00  0.2500000E+02
  0.0000000E+00  0.0000000E+00  0.1168000E+02  0.8108001E+01  0.5000697E-02  0.0000000E+00  0.0000000E+00  0.0000000E+00  0.0000000E+00  0.0000000E+00  0.0000000E+00  0.2500000E+02
  0.0000000E+00  0.0000000E+00  0.1184000E+02  0.8108001E+01  0.5000697E-02  0.0000000E+00  0.0000000E+00  0.0000000E+00  0.0000000E+00  0.0000000E+00  0.0000000E+00  0.2500000E+02
  0.0000000E+00  0.0000000E+00  0.1200000E+02  0.8108001E+01  0.5000697E-02  0.0000000E+00  0.0000000E+00  0.0000000E+00  0.0000000E+00  0.0000000E+00  0.0000000E+00  0.2500000E+02
  0.0000000E+00  0.0000000E+00  0.1216000E+02  0.8108001E+01  0.5000697E-02  0.0000000E+00  0.0000000E+00  0.0000000E+00  0.0000000E+00  0.0000000E+00  0.0000000E+00  0.2500000E+02
  0.0000000E+00  0.0000000E+00  0.1232000E+02  0.8108001E+01  0.5000697E-02  0.0000000E+00  0.0000000E+00  0.0000000E+00  0.0000000E+00  0.0000000E+00  0.0000000E+00  0.2500000E+02
  0.0000000E+00  0.0000000E+00  0.1248000E+02  0.8108001E+01  0.5000697E-02  0.0000000E+00  0.0000000E+00  0.0000000E+00  0.0000000E+00  0.0000000E+00  0.0000000E+00  0.2500000E+02
  0.0000000E+00  0.0000000E+00  0.1264000E+02  0.8108001E+01  0.5000697E-02  0.0000000E+00  0.0000000E+00  0.0000000E+00  0.0000000E+00  0.0000000E+00  0.0000000E+00  0.2500000E+02
  0.0000000E+00  0.0000000E+00  0.1280000E+02  0.8108001E+01  0.5000697E-02  0.0000000E+00  0.0000000E+00  0.0000000E+00  0.0000000E+00  0.0000000E+00  0.0000000E+00  0.2500000E+02
  0.0000000E+00  0.0000000E+00  0.1296000E+02  0.8108001E+01  0.5000697E-02  0.0000000E+00  0.0000000E+00  0.0000000E+00  0.0000000E+00  0.0000000E+00  0.0000000E+00  0.2500000E+02
  0.0000000E+00  0.0000000E+00  0.1312000E+02  0.8108001E+01  0.5000697E-02  0.0000000E+00  0.0000000E+00  0.0000000E+00  0.0000000E+00  0.0000000E+00  0.0000000E+00  0.2500000E+02
  0.0000000E+00  0.0000000E+00  0.1328000E+02  0.8108001E+01  0.5000697E-02  0.0000000E+00  0.0000000E+00  0.0000000E+00  0.0000000E+00  0.0000000E+00  0.0000000E+00  0.2500000E+02
  0.0000000E+00  0.0000000E+00  0.1344000E+02  0.8108001E+01  0.5000697E-02  0.0000000E+00  0.0000000E+00  0.0000000E+00  0.0000000E+00  0.0000000E+00  0.0000000E+00  0.2500000E+02
  0.0000000E+00  0.0000000E+00  0.1360000E+02  0.8108001E+01  0.5000697E-02  0.0000000E+00  0.0000000E+00  0.0000000E+00  0.0000000E+00  0.0000000E+00  0.0000000E+00  0.2500000E+02
  0.0000000E+00  0.0000000E+00  0.1376000E+02  0.8108001E+01  0.5000697E-02  0.0000000E+00  0.0000000E+00  0.0000000E+00  0.0000000E+00  0.0000000E+00  0.0000000E+00  0.2500000E+02
  0.0000000E+00  0.0000000E+00  0.1392000E+02  0.8108001E+01  0.5000697E-02  0.0000000E+00  0.0000000E+00  0.0000000E+00  0.0000000E+00  0.0000000E+00  0.0000000E+00  0.2500000E+02
  0.0000000E+00  0.0000000E+00  0.1408000E+02  0.8108001E+01  0.5000697E-02  0.0000000E+00  0.0000000E+00  0.0000000E+00  0.0000000E+00  0.0000000E+00  0.0000000E+00  0.2500000E+02
  0.0000000E+00  0.0000000E+00  0.1424000E+02  0.8108001E+01  0.5000697E-02  0.0000000E+00  0.0000000E+00  0.0000000E+00  0.0000000E+00  0.0000000E+00  0.0000000E+00  0.2500000E+02
  0.0000000E+00  0.0000000E+00  0.1440000E+02  0.8108001E+01  0.5000697E-02  0.0000000E+00  0.0000000E+00  0.0000000E+00  0.0000000E+00  0.0000000E+00  0.0000000E+00  0.2500000E+02
  0.0000000E+00  0.0000000E+00  0.1456000E+02  0.8108001E+01  0.5000697E-02  0.0000000E+00  0.0000000E+00  0.0000000E+00  0.0000000E+00  0.0000000E+00  0.0000000E+00  0.2500000E+02
  0.0000000E+00  0.0000000E+00  0.1472000E+02  0.8108001E+01  0.5000697E-02  0.0000000E+00  0.0000000E+00  0.0000000E+00  0.0000000E+00  0.0000000E+00  0.0000000E+00  0.2500000E+02
  0.0000000E+00  0.0000000E+00  0.1488000E+02  0.8108001E+01  0.5000697E-02  0.0000000E+00  0.0000000E+00  0.0000000E+00  0.0000000E+00  0.0000000E+00  0.0000000E+00  0.2500000E+02
  0.0000000E+00  0.0000000E+00  0.1504000E+02  0.8108001E+01  0.5000697E-02  0.0000000E+00  0.0000000E+00  0.0000000E+00  0.0000000E+00  0.0000000E+00  0.0000000E+00  0.2500000E+02
  0.0000000E+00  0.0000000E+00  0.1520000E+02  0.8108001E+01  0.5000697E-02  0.0000000E+00  0.0000000E+00  0.0000000E+00  0.0000000E+00  0.0000000E+00  0.0000000E+00  0.2500000E+02
  0.0000000E+00  0.0000000E+00  0.1536000E+02  0.8108001E+01  0.5000697E-02  0.0000000E+00  0.0000000E+00  0.0000000E+00  0.0000000E+00  0.0000000E+00  0.0000000E+00  0.2500000E+02
  0.0000000E+00  0.0000000E+00  0.1552000E+02  0.8108001E+01  0.5000697E-02  0.0000000E+00  0.0000000E+00  0.0000000E+00  0.0000000E+00  0.0000000E+00  0.0000000E+00  0.2500000E+02
  0.0000000E+00  0.0000000E+00  0.1568000E+02  0.8108001E+01  0.5000697E-02  0.0000000E+00  0.0000000E+00  0.0000000E+00  0.0000000E+00  0.0000000E+00  0.0000000E+00  0.2500000E+02
  0.0000000E+00  0.0000000E+00  0.1584000E+02  0.8108001E+01  0.5000697E-02  0.0000000E+00  0.0000000E+00  0.0000000E+00  0.0000000E+00  0.0000000E+00  0.0000000E+00  0.2500000E+02
  0.0000000E+00  0.0000000E+00  0.1600000E+02  0.8108001E+01  0.5000697E-02  0.0000000E+00  0.0000000E+00  0.0000000E+00  0.0000000E+00  0.0000000E+00  0.0000000E+00  0.2500000E+02
