title = "dataset surfx"
variables = "x", "y", "z", "K_xx", "K_yy", "K_zz"
zone t = "K - initial [m/s]", i =  101, j =    1, k =    1,  f=point
  0.0000000E+00  0.0000000E+00  0.0000000E+00  0.0000000E+00  0.0000000E+00  0.1000000E-02
  0.0000000E+00  0.0000000E+00  0.1600000E+00  0.0000000E+00  0.0000000E+00  0.1000000E-02
  0.0000000E+00  0.0000000E+00  0.3200000E+00  0.0000000E+00  0.0000000E+00  0.1000000E-02
  0.0000000E+00  0.0000000E+00  0.4800000E+00  0.0000000E+00  0.0000000E+00  0.1000000E-02
  0.0000000E+00  0.0000000E+00  0.6400000E+00  0.0000000E+00  0.0000000E+00  0.1000000E-02
  0.0000000E+00  0.0000000E+00  0.8000000E+00  0.0000000E+00  0.0000000E+00  0.1000000E-02
  0.0000000E+00  0.0000000E+00  0.9600000E+00  0.0000000E+00  0.0000000E+00  0.1000000E-02
  0.0000000E+00  0.0000000E+00  0.1120000E+01  0.0000000E+00  0.0000000E+00  0.1000000E-02
  0.0000000E+00  0.0000000E+00  0.1280000E+01  0.0000000E+00  0.0000000E+00  0.1000000E-02
  0.0000000E+00  0.0000000E+00  0.1440000E+01  0.0000000E+00  0.0000000E+00  0.1000000E-02
  0.0000000E+00  0.0000000E+00  0.1600000E+01  0.0000000E+00  0.0000000E+00  0.1000000E-02
  0.0000000E+00  0.0000000E+00  0.1760000E+01  0.0000000E+00  0.0000000E+00  0.1000000E-02
  0.0000000E+00  0.0000000E+00  0.1920000E+01  0.0000000E+00  0.0000000E+00  0.1000000E-02
  0.0000000E+00  0.0000000E+00  0.2080000E+01  0.0000000E+00  0.0000000E+00  0.1000000E-02
  0.0000000E+00  0.0000000E+00  0.2240000E+01  0.0000000E+00  0.0000000E+00  0.1000000E-02
  0.0000000E+00  0.0000000E+00  0.2400000E+01  0.0000000E+00  0.0000000E+00  0.1000000E-02
  0.0000000E+00  0.0000000E+00  0.2560000E+01  0.0000000E+00  0.0000000E+00  0.1000000E-02
  0.0000000E+00  0.0000000E+00  0.2720000E+01  0.0000000E+00  0.0000000E+00  0.1000000E-02
  0.0000000E+00  0.0000000E+00  0.2880000E+01  0.0000000E+00  0.0000000E+00  0.1000000E-02
  0.0000000E+00  0.0000000E+00  0.3040000E+01  0.0000000E+00  0.0000000E+00  0.1000000E-02
  0.0000000E+00  0.0000000E+00  0.3200000E+01  0.0000000E+00  0.0000000E+00  0.1000000E-02
  0.0000000E+00  0.0000000E+00  0.3360000E+01  0.0000000E+00  0.0000000E+00  0.1000000E-02
  0.0000000E+00  0.0000000E+00  0.3520000E+01  0.0000000E+00  0.0000000E+00  0.1000000E-02
  0.0000000E+00  0.0000000E+00  0.3680000E+01  0.0000000E+00  0.0000000E+00  0.1000000E-02
  0.0000000E+00  0.0000000E+00  0.3840000E+01  0.0000000E+00  0.0000000E+00  0.1000000E-02
  0.0000000E+00  0.0000000E+00  0.4000000E+01  0.0000000E+00  0.0000000E+00  0.1000000E-02
  0.0000000E+00  0.0000000E+00  0.4160000E+01  0.0000000E+00  0.0000000E+00  0.1000000E-02
  0.0000000E+00  0.0000000E+00  0.4320000E+01  0.0000000E+00  0.0000000E+00  0.1000000E-02
  0.0000000E+00  0.0000000E+00  0.4480000E+01  0.0000000E+00  0.0000000E+00  0.1000000E-02
  0.0000000E+00  0.0000000E+00  0.4640000E+01  0.0000000E+00  0.0000000E+00  0.1000000E-02
  0.0000000E+00  0.0000000E+00  0.4800000E+01  0.0000000E+00  0.0000000E+00  0.1000000E-02
  0.0000000E+00  0.0000000E+00  0.4960000E+01  0.0000000E+00  0.0000000E+00  0.1000000E-02
  0.0000000E+00  0.0000000E+00  0.5120000E+01  0.0000000E+00  0.0000000E+00  0.1000000E-02
  0.0000000E+00  0.0000000E+00  0.5280000E+01  0.0000000E+00  0.0000000E+00  0.1000000E-02
  0.0000000E+00  0.0000000E+00  0.5440000E+01  0.0000000E+00  0.0000000E+00  0.1000000E-02
  0.0000000E+00  0.0000000E+00  0.5600000E+01  0.0000000E+00  0.0000000E+00  0.1000000E-02
  0.0000000E+00  0.0000000E+00  0.5760000E+01  0.0000000E+00  0.0000000E+00  0.1000000E-02
  0.0000000E+00  0.0000000E+00  0.5920000E+01  0.0000000E+00  0.0000000E+00  0.1000000E-02
  0.0000000E+00  0.0000000E+00  0.6080000E+01  0.0000000E+00  0.0000000E+00  0.1000000E-02
  0.0000000E+00  0.0000000E+00  0.6240000E+01  0.0000000E+00  0.0000000E+00  0.1000000E-02
  0.0000000E+00  0.0000000E+00  0.6400000E+01  0.0000000E+00  0.0000000E+00  0.1000000E-02
  0.0000000E+00  0.0000000E+00  0.6560000E+01  0.0000000E+00  0.0000000E+00  0.1000000E-02
  0.0000000E+00  0.0000000E+00  0.6720000E+01  0.0000000E+00  0.0000000E+00  0.1000000E-02
  0.0000000E+00  0.0000000E+00  0.6880000E+01  0.0000000E+00  0.0000000E+00  0.1000000E-02
  0.0000000E+00  0.0000000E+00  0.7040000E+01  0.0000000E+00  0.0000000E+00  0.1000000E-02
  0.0000000E+00  0.0000000E+00  0.7200000E+01  0.0000000E+00  0.0000000E+00  0.1000000E-02
  0.0000000E+00  0.0000000E+00  0.7360000E+01  0.0000000E+00  0.0000000E+00  0.1000000E-02
  0.0000000E+00  0.0000000E+00  0.7520000E+01  0.0000000E+00  0.0000000E+00  0.1000000E-02
  0.0000000E+00  0.0000000E+00  0.7680000E+01  0.0000000E+00  0.0000000E+00  0.1000000E-02
  0.0000000E+00  0.0000000E+00  0.7840000E+01  0.0000000E+00  0.0000000E+00  0.1000000E-02
  0.0000000E+00  0.0000000E+00  0.8000000E+01  0.0000000E+00  0.0000000E+00  0.1000000E-02
  0.0000000E+00  0.0000000E+00  0.8160000E+01  0.0000000E+00  0.0000000E+00  0.1000000E-02
  0.0000000E+00  0.0000000E+00  0.8320000E+01  0.0000000E+00  0.0000000E+00  0.1000000E-02
  0.0000000E+00  0.0000000E+00  0.8480000E+01  0.0000000E+00  0.0000000E+00  0.1000000E-02
  0.0000000E+00  0.0000000E+00  0.8640000E+01  0.0000000E+00  0.0000000E+00  0.1000000E-02
  0.0000000E+00  0.0000000E+00  0.8800000E+01  0.0000000E+00  0.0000000E+00  0.1000000E-02
  0.0000000E+00  0.0000000E+00  0.8960000E+01  0.0000000E+00  0.0000000E+00  0.1000000E-02
  0.0000000E+00  0.0000000E+00  0.9120000E+01  0.0000000E+00  0.0000000E+00  0.1000000E-02
  0.0000000E+00  0.0000000E+00  0.9280000E+01  0.0000000E+00  0.0000000E+00  0.1000000E-02
  0.0000000E+00  0.0000000E+00  0.9440000E+01  0.0000000E+00  0.0000000E+00  0.1000000E-02
  0.0000000E+00  0.0000000E+00  0.9600000E+01  0.0000000E+00  0.0000000E+00  0.1000000E-02
  0.0000000E+00  0.0000000E+00  0.9760000E+01  0.0000000E+00  0.0000000E+00  0.1000000E-02
  0.0000000E+00  0.0000000E+00  0.9920000E+01  0.0000000E+00  0.0000000E+00  0.1000000E-02
  0.0000000E+00  0.0000000E+00  0.1008000E+02  0.0000000E+00  0.0000000E+00  0.1000000E-02
  0.0000000E+00  0.0000000E+00  0.1024000E+02  0.0000000E+00  0.0000000E+00  0.1000000E-02
  0.0000000E+00  0.0000000E+00  0.1040000E+02  0.0000000E+00  0.0000000E+00  0.1000000E-02
  0.0000000E+00  0.0000000E+00  0.1056000E+02  0.0000000E+00  0.0000000E+00  0.1000000E-02
  0.0000000E+00  0.0000000E+00  0.1072000E+02  0.0000000E+00  0.0000000E+00  0.1000000E-02
  0.0000000E+00  0.0000000E+00  0.1088000E+02  0.0000000E+00  0.0000000E+00  0.1000000E-02
  0.0000000E+00  0.0000000E+00  0.1104000E+02  0.0000000E+00  0.0000000E+00  0.1000000E-02
  0.0000000E+00  0.0000000E+00  0.1120000E+02  0.0000000E+00  0.0000000E+00  0.1000000E-02
  0.0000000E+00  0.0000000E+00  0.1136000E+02  0.0000000E+00  0.0000000E+00  0.1000000E-02
  0.0000000E+00  0.0000000E+00  0.1152000E+02  0.0000000E+00  0.0000000E+00  0.1000000E-02
  0.0000000E+00  0.0000000E+00  0.1168000E+02  0.0000000E+00  0.0000000E+00  0.1000000E-02
  0.0000000E+00  0.0000000E+00  0.1184000E+02  0.0000000E+00  0.0000000E+00  0.1000000E-02
  0.0000000E+00  0.0000000E+00  0.1200000E+02  0.0000000E+00  0.0000000E+00  0.1000000E-02
  0.0000000E+00  0.0000000E+00  0.1216000E+02  0.0000000E+00  0.0000000E+00  0.1000000E-02
  0.0000000E+00  0.0000000E+00  0.1232000E+02  0.0000000E+00  0.0000000E+00  0.1000000E-02
  0.0000000E+00  0.0000000E+00  0.1248000E+02  0.0000000E+00  0.0000000E+00  0.1000000E-02
  0.0000000E+00  0.0000000E+00  0.1264000E+02  0.0000000E+00  0.0000000E+00  0.1000000E-02
  0.0000000E+00  0.0000000E+00  0.1280000E+02  0.0000000E+00  0.0000000E+00  0.1000000E-02
  0.0000000E+00  0.0000000E+00  0.1296000E+02  0.0000000E+00  0.0000000E+00  0.1000000E-02
  0.0000000E+00  0.0000000E+00  0.1312000E+02  0.0000000E+00  0.0000000E+00  0.1000000E-02
  0.0000000E+00  0.0000000E+00  0.1328000E+02  0.0000000E+00  0.0000000E+00  0.1000000E-02
  0.0000000E+00  0.0000000E+00  0.1344000E+02  0.0000000E+00  0.0000000E+00  0.1000000E-02
  0.0000000E+00  0.0000000E+00  0.1360000E+02  0.0000000E+00  0.0000000E+00  0.1000000E-02
  0.0000000E+00  0.0000000E+00  0.1376000E+02  0.0000000E+00  0.0000000E+00  0.1000000E-02
  0.0000000E+00  0.0000000E+00  0.1392000E+02  0.0000000E+00  0.0000000E+00  0.1000000E-02
  0.0000000E+00  0.0000000E+00  0.1408000E+02  0.0000000E+00  0.0000000E+00  0.1000000E-02
  0.0000000E+00  0.0000000E+00  0.1424000E+02  0.0000000E+00  0.0000000E+00  0.1000000E-02
  0.0000000E+00  0.0000000E+00  0.1440000E+02  0.0000000E+00  0.0000000E+00  0.1000000E-02
  0.0000000E+00  0.0000000E+00  0.1456000E+02  0.0000000E+00  0.0000000E+00  0.1000000E-02
  0.0000000E+00  0.0000000E+00  0.1472000E+02  0.0000000E+00  0.0000000E+00  0.1000000E-02
  0.0000000E+00  0.0000000E+00  0.1488000E+02  0.0000000E+00  0.0000000E+00  0.1000000E-02
  0.0000000E+00  0.0000000E+00  0.1504000E+02  0.0000000E+00  0.0000000E+00  0.1000000E-02
  0.0000000E+00  0.0000000E+00  0.1520000E+02  0.0000000E+00  0.0000000E+00  0.1000000E-02
  0.0000000E+00  0.0000000E+00  0.1536000E+02  0.0000000E+00  0.0000000E+00  0.1000000E-02
  0.0000000E+00  0.0000000E+00  0.1552000E+02  0.0000000E+00  0.0000000E+00  0.1000000E-02
  0.0000000E+00  0.0000000E+00  0.1568000E+02  0.0000000E+00  0.0000000E+00  0.1000000E-02
  0.0000000E+00  0.0000000E+00  0.1584000E+02  0.0000000E+00  0.0000000E+00  0.1000000E-02
  0.0000000E+00  0.0000000E+00  0.1600000E+02  0.0000000E+00  0.0000000E+00  0.1000000E-02
