title = "dataset surfx"
variables = "time","=feoh(s)","=feoh2+(s)","=feo-(s)","=feozn+(s)","=feocu+(s)","=feofe+(s)"
zone t = "S_i, volume =   101", f=point
  0.0000000E+00  0.7668800E-02  0.1166033E-02  0.1155442E-02  0.1016061E-06  0.1016044E-06  0.1021471E-04
  0.2400000E-06  0.7668792E-02  0.1166068E-02  0.1155405E-02  0.9999999E-07  0.9999996E-07  0.9999998E-05
  0.7584593E-06  0.7668792E-02  0.1166082E-02  0.1155391E-02  0.9999999E-07  0.9999996E-07  0.9999998E-05
  0.1728408E-05  0.7668792E-02  0.1166082E-02  0.1155391E-02  0.9999999E-07  0.9999996E-07  0.9999998E-05
  0.3543015E-05  0.7668792E-02  0.1166082E-02  0.1155391E-02  0.9999999E-07  0.9999996E-07  0.9999998E-05
  0.6937835E-05  0.7668792E-02  0.1166082E-02  0.1155391E-02  0.9999999E-07  0.9999996E-07  0.9999998E-05
  0.1328896E-04  0.7668792E-02  0.1166082E-02  0.1155391E-02  0.9999999E-07  0.9999996E-07  0.9999998E-05
  0.2391643E-04  0.7668792E-02  0.1166082E-02  0.1155391E-02  0.9999999E-07  0.9999996E-07  0.9999998E-05
  0.4169958E-04  0.7668792E-02  0.1166082E-02  0.1155391E-02  0.9999999E-07  0.9999996E-07  0.9999998E-05
  0.7145648E-04  0.7668792E-02  0.1166082E-02  0.1155391E-02  0.9999999E-07  0.9999996E-07  0.9999998E-05
  0.1212493E-03  0.7668792E-02  0.1166082E-02  0.1155391E-02  0.9999999E-07  0.9999996E-07  0.9999998E-05
  0.2045686E-03  0.7668792E-02  0.1166082E-02  0.1155391E-02  0.9999999E-07  0.9999996E-07  0.9999998E-05
  0.3439886E-03  0.7668792E-02  0.1166082E-02  0.1155391E-02  0.9999999E-07  0.9999996E-07  0.9999998E-05
  0.5772827E-03  0.7668792E-02  0.1166082E-02  0.1155391E-02  0.9999999E-07  0.9999996E-07  0.9999998E-05
  0.9676585E-03  0.7668792E-02  0.1166082E-02  0.1155391E-02  0.9999999E-07  0.9999996E-07  0.9999998E-05
  0.1620882E-02  0.7668792E-02  0.1166082E-02  0.1155391E-02  0.9999999E-07  0.9999996E-07  0.9999998E-05
  0.2713934E-02  0.7668792E-02  0.1166082E-02  0.1155391E-02  0.9999999E-07  0.9999996E-07  0.9999998E-05
  0.4542960E-02  0.7668792E-02  0.1166082E-02  0.1155391E-02  0.9999999E-07  0.9999996E-07  0.9999998E-05
  0.7603506E-02  0.7668792E-02  0.1166082E-02  0.1155391E-02  0.9999999E-07  0.9999996E-07  0.9999998E-05
  0.1272478E-01  0.7668792E-02  0.1166082E-02  0.1155391E-02  0.9999999E-07  0.9999996E-07  0.9999998E-05
  0.2129431E-01  0.7668792E-02  0.1166082E-02  0.1155391E-02  0.9999999E-07  0.9999996E-07  0.9999998E-05
  0.3438448E-01  0.7668792E-02  0.1166082E-02  0.1155391E-02  0.9999999E-07  0.9999996E-07  0.9999998E-05
  0.5438005E-01  0.7668792E-02  0.1166082E-02  0.1155391E-02  0.9999999E-07  0.9999996E-07  0.9999998E-05
  0.8783903E-01  0.7668792E-02  0.1166082E-02  0.1155391E-02  0.9999999E-07  0.9999996E-07  0.9999998E-05
  0.1267851E+00  0.7668792E-02  0.1166082E-02  0.1155391E-02  0.9999999E-07  0.9999996E-07  0.9999998E-05
  0.1392325E+00  0.7668792E-02  0.1166082E-02  0.1155391E-02  0.9999999E-07  0.9999996E-07  0.9999998E-05
  0.1568358E+00  0.7668792E-02  0.1166082E-02  0.1155391E-02  0.9999999E-07  0.9999996E-07  0.9999998E-05
  0.1837252E+00  0.7668792E-02  0.1166082E-02  0.1155391E-02  0.9999999E-07  0.9999996E-07  0.9999998E-05
  0.2247994E+00  0.7668792E-02  0.1166082E-02  0.1155391E-02  0.9999999E-07  0.9999996E-07  0.9999998E-05
  0.2828872E+00  0.7668792E-02  0.1166082E-02  0.1155391E-02  0.9999999E-07  0.9999996E-07  0.9999998E-05
  0.3650358E+00  0.7668792E-02  0.1166082E-02  0.1155391E-02  0.9999999E-07  0.9999996E-07  0.9999998E-05
  0.4447793E+00  0.7668792E-02  0.1166082E-02  0.1155391E-02  0.9999999E-07  0.9999996E-07  0.9999998E-05
  0.4697434E+00  0.7668792E-02  0.1166082E-02  0.1155391E-02  0.9999999E-07  0.9999996E-07  0.9999998E-05
  0.5008791E+00  0.7668792E-02  0.1166082E-02  0.1155391E-02  0.9999999E-07  0.9999996E-07  0.9999998E-05
  0.5449116E+00  0.7668792E-02  0.1166082E-02  0.1155391E-02  0.9999999E-07  0.9999996E-07  0.9999998E-05
  0.6121724E+00  0.7668792E-02  0.1166082E-02  0.1155391E-02  0.9999999E-07  0.9999996E-07  0.9999998E-05
  0.7149150E+00  0.7668792E-02  0.1166082E-02  0.1155391E-02  0.9999999E-07  0.9999996E-07  0.9999998E-05
  0.7972829E+00  0.7668792E-02  0.1166082E-02  0.1155391E-02  0.9999999E-07  0.9999996E-07  0.9999998E-05
  0.8265010E+00  0.7668792E-02  0.1166082E-02  0.1155391E-02  0.9999999E-07  0.9999996E-07  0.9999998E-05
  0.8526344E+00  0.7668792E-02  0.1166082E-02  0.1155391E-02  0.9999999E-07  0.9999996E-07  0.9999998E-05
  0.8821170E+00  0.7668792E-02  0.1166082E-02  0.1155391E-02  0.9999999E-07  0.9999996E-07  0.9999998E-05
  0.9271523E+00  0.7668792E-02  0.1166082E-02  0.1155391E-02  0.9999999E-07  0.9999996E-07  0.9999998E-05
  0.9959448E+00  0.7668792E-02  0.1166082E-02  0.1155391E-02  0.9999999E-07  0.9999996E-07  0.9999998E-05
  0.1101027E+01  0.7668792E-02  0.1166082E-02  0.1155391E-02  0.9999999E-07  0.9999996E-07  0.9999998E-05
  0.1185765E+01  0.7668792E-02  0.1166082E-02  0.1155391E-02  0.9999999E-07  0.9999996E-07  0.9999998E-05
  0.1213076E+01  0.7668792E-02  0.1166082E-02  0.1155391E-02  0.9999999E-07  0.9999996E-07  0.9999998E-05
  0.1251701E+01  0.7668792E-02  0.1166082E-02  0.1155391E-02  0.9999999E-07  0.9999996E-07  0.9999998E-05
  0.1306323E+01  0.7668792E-02  0.1166082E-02  0.1155391E-02  0.9999999E-07  0.9999996E-07  0.9999998E-05
  0.1389761E+01  0.7668792E-02  0.1166082E-02  0.1155391E-02  0.9999999E-07  0.9999996E-07  0.9999998E-05
  0.1499841E+01  0.7668792E-02  0.1166082E-02  0.1155391E-02  0.9999999E-07  0.9999996E-07  0.9999998E-05
  0.1562050E+01  0.7668792E-02  0.1166082E-02  0.1155391E-02  0.9999999E-07  0.9999996E-07  0.9999998E-05
  0.1588257E+01  0.7668792E-02  0.1166082E-02  0.1155391E-02  0.9999999E-07  0.9999996E-07  0.9999998E-05
  0.1622927E+01  0.7668792E-02  0.1166082E-02  0.1155391E-02  0.9999999E-07  0.9999996E-07  0.9999998E-05
  0.1675886E+01  0.7668792E-02  0.1166082E-02  0.1155391E-02  0.9999999E-07  0.9999996E-07  0.9999998E-05
  0.1756781E+01  0.7668792E-02  0.1166082E-02  0.1155391E-02  0.9999999E-07  0.9999996E-07  0.9999998E-05
  0.1871185E+01  0.7668792E-02  0.1166082E-02  0.1155391E-02  0.9999999E-07  0.9999996E-07  0.9999998E-05
  0.1928625E+01  0.7668792E-02  0.1166082E-02  0.1155391E-02  0.9999999E-07  0.9999996E-07  0.9999998E-05
  0.1953845E+01  0.7668792E-02  0.1166082E-02  0.1155391E-02  0.9999999E-07  0.9999996E-07  0.9999998E-05
  0.1987208E+01  0.7668792E-02  0.1166082E-02  0.1155391E-02  0.9999999E-07  0.9999996E-07  0.9999998E-05
  0.2038171E+01  0.7668792E-02  0.1166082E-02  0.1155391E-02  0.9999999E-07  0.9999996E-07  0.9999998E-05
  0.2116018E+01  0.7668792E-02  0.1166082E-02  0.1155391E-02  0.9999999E-07  0.9999996E-07  0.9999998E-05
  0.2234931E+01  0.7668792E-02  0.1166082E-02  0.1155391E-02  0.9999999E-07  0.9999996E-07  0.9999998E-05
  0.2272892E+01  0.7668792E-02  0.1166082E-02  0.1155391E-02  0.9999999E-07  0.9999996E-07  0.9999998E-05
  0.2290138E+01  0.7668792E-02  0.1166082E-02  0.1155391E-02  0.9999999E-07  0.9999996E-07  0.9999998E-05
  0.2314528E+01  0.7668792E-02  0.1166082E-02  0.1155391E-02  0.9999999E-07  0.9999996E-07  0.9999998E-05
  0.2346793E+01  0.7668792E-02  0.1166082E-02  0.1155391E-02  0.9999999E-07  0.9999996E-07  0.9999998E-05
  0.2392422E+01  0.7668792E-02  0.1166082E-02  0.1155391E-02  0.9999999E-07  0.9999996E-07  0.9999998E-05
  0.2462122E+01  0.7668792E-02  0.1166082E-02  0.1155391E-02  0.9999999E-07  0.9999996E-07  0.9999998E-05
  0.2568590E+01  0.7668792E-02  0.1166082E-02  0.1155391E-02  0.9999999E-07  0.9999996E-07  0.9999998E-05
  0.2660636E+01  0.7668792E-02  0.1166082E-02  0.1155391E-02  0.9999999E-07  0.9999996E-07  0.9999998E-05
  0.2689459E+01  0.7668792E-02  0.1166082E-02  0.1155391E-02  0.9999999E-07  0.9999996E-07  0.9999998E-05
  0.2730220E+01  0.7668792E-02  0.1166082E-02  0.1155391E-02  0.9999999E-07  0.9999996E-07  0.9999998E-05
  0.2787866E+01  0.7668792E-02  0.1166082E-02  0.1155391E-02  0.9999999E-07  0.9999996E-07  0.9999998E-05
  0.2875920E+01  0.7668792E-02  0.1166082E-02  0.1155391E-02  0.9999999E-07  0.9999996E-07  0.9999998E-05
  0.2992405E+01  0.7668792E-02  0.1166082E-02  0.1155391E-02  0.9999999E-07  0.9999996E-07  0.9999998E-05
  0.3017730E+01  0.7668792E-02  0.1166082E-02  0.1155391E-02  0.9999999E-07  0.9999996E-07  0.9999998E-05
  0.3034504E+01  0.7668792E-02  0.1166082E-02  0.1155391E-02  0.9999999E-07  0.9999996E-07  0.9999998E-05
  0.3056694E+01  0.7668792E-02  0.1166082E-02  0.1155391E-02  0.9999999E-07  0.9999996E-07  0.9999998E-05
  0.3088076E+01  0.7668792E-02  0.1166082E-02  0.1155391E-02  0.9999999E-07  0.9999996E-07  0.9999998E-05
  0.3136013E+01  0.7668792E-02  0.1166082E-02  0.1155391E-02  0.9999999E-07  0.9999996E-07  0.9999998E-05
  0.3209237E+01  0.7668792E-02  0.1166082E-02  0.1155391E-02  0.9999999E-07  0.9999996E-07  0.9999998E-05
  0.3321088E+01  0.7668792E-02  0.1166082E-02  0.1155391E-02  0.9999999E-07  0.9999996E-07  0.9999998E-05
  0.3403645E+01  0.7668792E-02  0.1166082E-02  0.1155391E-02  0.9999999E-07  0.9999996E-07  0.9999998E-05
  0.3431414E+01  0.7668792E-02  0.1166082E-02  0.1155391E-02  0.9999999E-07  0.9999996E-07  0.9999998E-05
  0.3470684E+01  0.7668792E-02  0.1166082E-02  0.1155391E-02  0.9999999E-07  0.9999996E-07  0.9999998E-05
  0.3526221E+01  0.7668792E-02  0.1166082E-02  0.1155391E-02  0.9999999E-07  0.9999996E-07  0.9999998E-05
  0.3611056E+01  0.7668792E-02  0.1166082E-02  0.1155391E-02  0.9999999E-07  0.9999996E-07  0.9999998E-05
  0.3729499E+01  0.7668792E-02  0.1166082E-02  0.1155391E-02  0.9999999E-07  0.9999996E-07  0.9999998E-05
  0.3777485E+01  0.7668792E-02  0.1166082E-02  0.1155391E-02  0.9999999E-07  0.9999996E-07  0.9999998E-05
  0.3808017E+01  0.7668792E-02  0.1166082E-02  0.1155391E-02  0.9999999E-07  0.9999996E-07  0.9999998E-05
  0.3844142E+01  0.7668792E-02  0.1166082E-02  0.1155391E-02  0.9999999E-07  0.9999996E-07  0.9999998E-05
  0.3899324E+01  0.7668792E-02  0.1166082E-02  0.1155391E-02  0.9999999E-07  0.9999996E-07  0.9999998E-05
  0.3983617E+01  0.7668792E-02  0.1166082E-02  0.1155391E-02  0.9999999E-07  0.9999996E-07  0.9999998E-05
  0.4100444E+01  0.7668792E-02  0.1166082E-02  0.1155391E-02  0.9999999E-07  0.9999996E-07  0.9999998E-05
  0.4144542E+01  0.7668792E-02  0.1166082E-02  0.1155391E-02  0.9999999E-07  0.9999996E-07  0.9999998E-05
  0.4177237E+01  0.7668792E-02  0.1166082E-02  0.1155391E-02  0.9999999E-07  0.9999996E-07  0.9999998E-05
  0.4215923E+01  0.7668792E-02  0.1166082E-02  0.1155391E-02  0.9999999E-07  0.9999996E-07  0.9999998E-05
  0.4275017E+01  0.7668792E-02  0.1166082E-02  0.1155391E-02  0.9999999E-07  0.9999996E-07  0.9999998E-05
  0.4365285E+01  0.7668792E-02  0.1166082E-02  0.1155391E-02  0.9999999E-07  0.9999996E-07  0.9999998E-05
  0.4475502E+01  0.7668792E-02  0.1166082E-02  0.1155391E-02  0.9999999E-07  0.9999996E-07  0.9999998E-05
  0.4509476E+01  0.7668792E-02  0.1166082E-02  0.1155391E-02  0.9999999E-07  0.9999996E-07  0.9999998E-05
  0.4549673E+01  0.7668792E-02  0.1166082E-02  0.1155391E-02  0.9999999E-07  0.9999996E-07  0.9999998E-05
  0.4597236E+01  0.7668792E-02  0.1166082E-02  0.1155391E-02  0.9999999E-07  0.9999996E-07  0.9999998E-05
  0.4664500E+01  0.7668792E-02  0.1166082E-02  0.1155391E-02  0.9999999E-07  0.9999996E-07  0.9999998E-05
  0.4767247E+01  0.7668792E-02  0.1166082E-02  0.1155391E-02  0.9999999E-07  0.9999996E-07  0.9999998E-05
  0.4862689E+01  0.7668792E-02  0.1166082E-02  0.1155391E-02  0.9999999E-07  0.9999996E-07  0.9999998E-05
  0.4891920E+01  0.7668792E-02  0.1166082E-02  0.1155391E-02  0.9999999E-07  0.9999996E-07  0.9999998E-05
  0.4933258E+01  0.7668792E-02  0.1166082E-02  0.1155391E-02  0.9999999E-07  0.9999996E-07  0.9999998E-05
  0.4991720E+01  0.7668792E-02  0.1166082E-02  0.1155391E-02  0.9999999E-07  0.9999996E-07  0.9999998E-05
  0.5081021E+01  0.7668792E-02  0.1166082E-02  0.1155391E-02  0.9999999E-07  0.9999996E-07  0.9999998E-05
  0.5202434E+01  0.7668792E-02  0.1166082E-02  0.1155391E-02  0.9999999E-07  0.9999996E-07  0.9999998E-05
  0.5248016E+01  0.7668792E-02  0.1166082E-02  0.1155391E-02  0.9999999E-07  0.9999996E-07  0.9999998E-05
  0.5280706E+01  0.7668792E-02  0.1166082E-02  0.1155391E-02  0.9999999E-07  0.9999996E-07  0.9999998E-05
  0.5319386E+01  0.7668792E-02  0.1166082E-02  0.1155391E-02  0.9999999E-07  0.9999996E-07  0.9999998E-05
  0.5378470E+01  0.7668792E-02  0.1166082E-02  0.1155391E-02  0.9999999E-07  0.9999996E-07  0.9999998E-05
  0.5468723E+01  0.7668792E-02  0.1166082E-02  0.1155391E-02  0.9999999E-07  0.9999996E-07  0.9999998E-05
  0.5578915E+01  0.7668792E-02  0.1166082E-02  0.1155391E-02  0.9999999E-07  0.9999996E-07  0.9999998E-05
  0.5612803E+01  0.7668792E-02  0.1166082E-02  0.1155391E-02  0.9999999E-07  0.9999996E-07  0.9999998E-05
  0.5655069E+01  0.7668792E-02  0.1166082E-02  0.1155391E-02  0.9999999E-07  0.9999996E-07  0.9999998E-05
  0.5705078E+01  0.7668792E-02  0.1166082E-02  0.1155391E-02  0.9999999E-07  0.9999996E-07  0.9999998E-05
  0.5775802E+01  0.7668792E-02  0.1166082E-02  0.1155391E-02  0.9999999E-07  0.9999996E-07  0.9999998E-05
  0.5883835E+01  0.7668792E-02  0.1166082E-02  0.1155391E-02  0.9999999E-07  0.9999996E-07  0.9999998E-05
  0.5973594E+01  0.7668792E-02  0.1166082E-02  0.1155391E-02  0.9999999E-07  0.9999996E-07  0.9999998E-05
  0.6002130E+01  0.7668792E-02  0.1166082E-02  0.1155391E-02  0.9999999E-07  0.9999996E-07  0.9999998E-05
  0.6042487E+01  0.7668792E-02  0.1166082E-02  0.1155391E-02  0.9999999E-07  0.9999996E-07  0.9999998E-05
  0.6099560E+01  0.7668792E-02  0.1166082E-02  0.1155391E-02  0.9999999E-07  0.9999996E-07  0.9999998E-05
  0.6186740E+01  0.7668792E-02  0.1166082E-02  0.1155391E-02  0.9999999E-07  0.9999996E-07  0.9999998E-05
  0.6306490E+01  0.7668792E-02  0.1166082E-02  0.1155391E-02  0.9999999E-07  0.9999996E-07  0.9999998E-05
  0.6351627E+01  0.7668792E-02  0.1166082E-02  0.1155391E-02  0.9999999E-07  0.9999996E-07  0.9999998E-05
  0.6384293E+01  0.7668792E-02  0.1166082E-02  0.1155391E-02  0.9999999E-07  0.9999996E-07  0.9999998E-05
  0.6422944E+01  0.7668792E-02  0.1166082E-02  0.1155391E-02  0.9999999E-07  0.9999996E-07  0.9999998E-05
  0.6481984E+01  0.7668792E-02  0.1166082E-02  0.1155391E-02  0.9999999E-07  0.9999996E-07  0.9999998E-05
  0.6572170E+01  0.7668792E-02  0.1166082E-02  0.1155391E-02  0.9999999E-07  0.9999996E-07  0.9999998E-05
  0.6682725E+01  0.7668792E-02  0.1166082E-02  0.1155391E-02  0.9999999E-07  0.9999996E-07  0.9999998E-05
  0.6716778E+01  0.7668792E-02  0.1166082E-02  0.1155391E-02  0.9999999E-07  0.9999996E-07  0.9999998E-05
  0.6757071E+01  0.7668792E-02  0.1166082E-02  0.1155391E-02  0.9999999E-07  0.9999996E-07  0.9999998E-05
  0.6804745E+01  0.7668792E-02  0.1166082E-02  0.1155391E-02  0.9999999E-07  0.9999996E-07  0.9999998E-05
  0.6872167E+01  0.7668792E-02  0.1166082E-02  0.1155391E-02  0.9999999E-07  0.9999996E-07  0.9999998E-05
  0.6975155E+01  0.7668792E-02  0.1166082E-02  0.1155391E-02  0.9999999E-07  0.9999996E-07  0.9999998E-05
  0.7070782E+01  0.7668792E-02  0.1166082E-02  0.1155391E-02  0.9999999E-07  0.9999996E-07  0.9999998E-05
  0.7100101E+01  0.7668792E-02  0.1166082E-02  0.1155391E-02  0.9999999E-07  0.9999996E-07  0.9999998E-05
  0.7141562E+01  0.7668792E-02  0.1166082E-02  0.1155391E-02  0.9999999E-07  0.9999996E-07  0.9999998E-05
  0.7200198E+01  0.7668792E-02  0.1166082E-02  0.1155391E-02  0.9999999E-07  0.9999996E-07  0.9999998E-05
  0.7289767E+01  0.7668792E-02  0.1166082E-02  0.1155391E-02  0.9999999E-07  0.9999996E-07  0.9999998E-05
  0.7411103E+01  0.7668792E-02  0.1166082E-02  0.1155391E-02  0.9999999E-07  0.9999996E-07  0.9999998E-05
  0.7433474E+01  0.7668792E-02  0.1166082E-02  0.1155391E-02  0.9999999E-07  0.9999996E-07  0.9999998E-05
  0.7453537E+01  0.7668792E-02  0.1166082E-02  0.1155391E-02  0.9999999E-07  0.9999996E-07  0.9999998E-05
  0.7478560E+01  0.7668792E-02  0.1166082E-02  0.1155391E-02  0.9999999E-07  0.9999996E-07  0.9999998E-05
  0.7513949E+01  0.7668792E-02  0.1166082E-02  0.1155391E-02  0.9999999E-07  0.9999996E-07  0.9999998E-05
  0.7568005E+01  0.7668792E-02  0.1166082E-02  0.1155391E-02  0.9999999E-07  0.9999996E-07  0.9999998E-05
  0.7650577E+01  0.7668792E-02  0.1166082E-02  0.1155391E-02  0.9999999E-07  0.9999996E-07  0.9999998E-05
  0.7774214E+01  0.7668792E-02  0.1166082E-02  0.1155391E-02  0.9999999E-07  0.9999996E-07  0.9999998E-05
  0.7801026E+01  0.7668792E-02  0.1166082E-02  0.1155391E-02  0.9999999E-07  0.9999996E-07  0.9999998E-05
  0.7817960E+01  0.7668792E-02  0.1166082E-02  0.1155391E-02  0.9999999E-07  0.9999996E-07  0.9999998E-05
  0.7840362E+01  0.7668792E-02  0.1166082E-02  0.1155391E-02  0.9999999E-07  0.9999996E-07  0.9999998E-05
  0.7872042E+01  0.7668792E-02  0.1166082E-02  0.1155391E-02  0.9999999E-07  0.9999996E-07  0.9999998E-05
  0.7920435E+01  0.7668792E-02  0.1166082E-02  0.1155391E-02  0.9999999E-07  0.9999996E-07  0.9999998E-05
  0.7994356E+01  0.7668792E-02  0.1166082E-02  0.1155391E-02  0.9999999E-07  0.9999996E-07  0.9999998E-05
  0.8098895E+01  0.7668792E-02  0.1166082E-02  0.1155391E-02  0.9999999E-07  0.9999996E-07  0.9999998E-05
  0.8184226E+01  0.7668792E-02  0.1166082E-02  0.1155391E-02  0.9999999E-07  0.9999996E-07  0.9999998E-05
  0.8212190E+01  0.7668792E-02  0.1166082E-02  0.1155391E-02  0.9999999E-07  0.9999996E-07  0.9999998E-05
  0.8251736E+01  0.7668792E-02  0.1166082E-02  0.1155391E-02  0.9999999E-07  0.9999996E-07  0.9999998E-05
  0.8307663E+01  0.7668792E-02  0.1166082E-02  0.1155391E-02  0.9999999E-07  0.9999996E-07  0.9999998E-05
  0.8393092E+01  0.7668792E-02  0.1166082E-02  0.1155391E-02  0.9999999E-07  0.9999996E-07  0.9999998E-05
  0.8513747E+01  0.7668792E-02  0.1166082E-02  0.1155391E-02  0.9999999E-07  0.9999996E-07  0.9999998E-05
  0.8561374E+01  0.7668792E-02  0.1166082E-02  0.1155391E-02  0.9999999E-07  0.9999996E-07  0.9999998E-05
  0.8592548E+01  0.7668792E-02  0.1166082E-02  0.1155391E-02  0.9999999E-07  0.9999996E-07  0.9999998E-05
  0.8629433E+01  0.7668792E-02  0.1166082E-02  0.1155391E-02  0.9999999E-07  0.9999996E-07  0.9999998E-05
  0.8685777E+01  0.7668792E-02  0.1166082E-02  0.1155391E-02  0.9999999E-07  0.9999996E-07  0.9999998E-05
  0.8771843E+01  0.7668792E-02  0.1166082E-02  0.1155391E-02  0.9999999E-07  0.9999996E-07  0.9999998E-05
  0.8886253E+01  0.7668792E-02  0.1166082E-02  0.1155391E-02  0.9999999E-07  0.9999996E-07  0.9999998E-05
  0.8925122E+01  0.7668792E-02  0.1166082E-02  0.1155391E-02  0.9999999E-07  0.9999996E-07  0.9999998E-05
  0.8959888E+01  0.7668792E-02  0.1166082E-02  0.1155391E-02  0.9999999E-07  0.9999996E-07  0.9999998E-05
  0.9001024E+01  0.7668792E-02  0.1166082E-02  0.1155391E-02  0.9999999E-07  0.9999996E-07  0.9999998E-05
  0.9059199E+01  0.7668792E-02  0.1166082E-02  0.1155391E-02  0.9999999E-07  0.9999996E-07  0.9999998E-05
  0.9148062E+01  0.7668792E-02  0.1166082E-02  0.1155391E-02  0.9999999E-07  0.9999996E-07  0.9999998E-05
  0.9258893E+01  0.7668792E-02  0.1166082E-02  0.1155391E-02  0.9999999E-07  0.9999996E-07  0.9999998E-05
  0.9293281E+01  0.7668792E-02  0.1166082E-02  0.1155391E-02  0.9999999E-07  0.9999996E-07  0.9999998E-05
  0.9333970E+01  0.7668791E-02  0.1166082E-02  0.1155391E-02  0.9999999E-07  0.9999996E-07  0.9999998E-05
  0.9382113E+01  0.7668791E-02  0.1166082E-02  0.1155391E-02  0.9999999E-07  0.9999996E-07  0.9999998E-05
  0.9450198E+01  0.7668791E-02  0.1166082E-02  0.1155392E-02  0.9999999E-07  0.9999996E-07  0.9999998E-05
  0.9554200E+01  0.7668791E-02  0.1166082E-02  0.1155392E-02  0.9999999E-07  0.9999996E-07  0.9999998E-05
  0.9648911E+01  0.7668791E-02  0.1166083E-02  0.1155392E-02  0.9999999E-07  0.9999996E-07  0.9999998E-05
  0.9678119E+01  0.7668790E-02  0.1166083E-02  0.1155392E-02  0.9999999E-07  0.9999996E-07  0.9999998E-05
  0.9719426E+01  0.7668790E-02  0.1166083E-02  0.1155392E-02  0.9999999E-07  0.9999996E-07  0.9999998E-05
  0.9777842E+01  0.7668789E-02  0.1166083E-02  0.1155392E-02  0.9999999E-07  0.9999996E-07  0.9999998E-05
  0.9867074E+01  0.7668789E-02  0.1166083E-02  0.1155393E-02  0.9999999E-07  0.9999996E-07  0.9999998E-05
  0.9988137E+01  0.7668788E-02  0.1166084E-02  0.1155393E-02  0.9999999E-07  0.9999996E-07  0.9999998E-05
  0.1000000E+02  0.7668785E-02  0.1166085E-02  0.1155394E-02  0.9999999E-07  0.9999996E-07  0.9999998E-05
  0.1001369E+02  0.7668785E-02  0.1166086E-02  0.1155394E-02  0.9999999E-07  0.9999996E-07  0.9999998E-05
  0.1003305E+02  0.7668785E-02  0.1166086E-02  0.1155395E-02  0.9999999E-07  0.9999996E-07  0.9999998E-05
  0.1005867E+02  0.7668784E-02  0.1166086E-02  0.1155395E-02  0.9999999E-07  0.9999996E-07  0.9999998E-05
  0.1009489E+02  0.7668784E-02  0.1166086E-02  0.1155395E-02  0.9999999E-07  0.9999996E-07  0.9999998E-05
  0.1015022E+02  0.7668783E-02  0.1166087E-02  0.1155396E-02  0.9999999E-07  0.9999996E-07  0.9999998E-05
  0.1023474E+02  0.7668781E-02  0.1166087E-02  0.1155397E-02  0.9999999E-07  0.9999996E-07  0.9999998E-05
  0.1035461E+02  0.7668778E-02  0.1166089E-02  0.1155398E-02  0.9999999E-07  0.9999996E-07  0.9999998E-05
  0.1040163E+02  0.7668771E-02  0.1166092E-02  0.1155401E-02  0.9999999E-07  0.9999996E-07  0.9999998E-05
  0.1043305E+02  0.7668769E-02  0.1166094E-02  0.1155402E-02  0.9999999E-07  0.9999996E-07  0.9999998E-05
  0.1047023E+02  0.7668767E-02  0.1166095E-02  0.1155403E-02  0.9999999E-07  0.9999996E-07  0.9999998E-05
  0.1052701E+02  0.7668764E-02  0.1166096E-02  0.1155405E-02  0.9999999E-07  0.9999996E-07  0.9999998E-05
  0.1061375E+02  0.7668760E-02  0.1166098E-02  0.1155407E-02  0.9999999E-07  0.9999996E-07  0.9999998E-05
  0.1072773E+02  0.7668752E-02  0.1166102E-02  0.1155412E-02  0.9999999E-07  0.9999996E-07  0.9999998E-05
  0.1076541E+02  0.7668738E-02  0.1166109E-02  0.1155418E-02  0.9999999E-07  0.9999996E-07  0.9999998E-05
  0.1080162E+02  0.7668733E-02  0.1166112E-02  0.1155420E-02  0.9999999E-07  0.9999996E-07  0.9999998E-05
  0.1084446E+02  0.7668728E-02  0.1166114E-02  0.1155423E-02  0.9999999E-07  0.9999996E-07  0.9999998E-05
  0.1090504E+02  0.7668722E-02  0.1166117E-02  0.1155426E-02  0.9999999E-07  0.9999996E-07  0.9999998E-05
  0.1099758E+02  0.7668712E-02  0.1166122E-02  0.1155431E-02  0.9999999E-07  0.9999996E-07  0.9999998E-05
  0.1110475E+02  0.7668694E-02  0.1166131E-02  0.1155440E-02  0.9999999E-07  0.9999996E-07  0.9999998E-05
  0.1113698E+02  0.7668669E-02  0.1166144E-02  0.1155452E-02  0.9999999E-07  0.9999996E-07  0.9999998E-05
  0.1118257E+02  0.7668661E-02  0.1166148E-02  0.1155456E-02  0.9999999E-07  0.9999996E-07  0.9999998E-05
  0.1123942E+02  0.7668649E-02  0.1166154E-02  0.1155462E-02  0.9999999E-07  0.9999996E-07  0.9999998E-05
  0.1131982E+02  0.7668633E-02  0.1166162E-02  0.1155471E-02  0.9999999E-07  0.9999996E-07  0.9999998E-05
  0.1144263E+02  0.7668607E-02  0.1166174E-02  0.1155484E-02  0.9999999E-07  0.9999996E-07  0.9999998E-05
  0.1151014E+02  0.7668562E-02  0.1166198E-02  0.1155506E-02  0.9999999E-07  0.9999996E-07  0.9999998E-05
  0.1153782E+02  0.7668534E-02  0.1166212E-02  0.1155519E-02  0.9999999E-07  0.9999996E-07  0.9999998E-05
  0.1157444E+02  0.7668523E-02  0.1166217E-02  0.1155525E-02  0.9999999E-07  0.9999996E-07  0.9999998E-05
  0.1163037E+02  0.7668507E-02  0.1166225E-02  0.1155533E-02  0.9999999E-07  0.9999996E-07  0.9999998E-05
  0.1171581E+02  0.7668482E-02  0.1166237E-02  0.1155546E-02  0.9999999E-07  0.9999996E-07  0.9999998E-05
  0.1183076E+02  0.7668440E-02  0.1166258E-02  0.1155567E-02  0.9999999E-07  0.9999996E-07  0.9999998E-05
  0.1187046E+02  0.7668377E-02  0.1166291E-02  0.1155597E-02  0.9999999E-07  0.9999996E-07  0.9999998E-05
  0.1190381E+02  0.7668355E-02  0.1166302E-02  0.1155608E-02  0.9999999E-07  0.9999996E-07  0.9999998E-05
  0.1194328E+02  0.7668336E-02  0.1166311E-02  0.1155618E-02  0.9999999E-07  0.9999996E-07  0.9999998E-05
  0.1199909E+02  0.7668312E-02  0.1166323E-02  0.1155630E-02  0.9999999E-07  0.9999996E-07  0.9999998E-05
  0.1208435E+02  0.7668278E-02  0.1166339E-02  0.1155648E-02  0.9999999E-07  0.9999996E-07  0.9999998E-05
  0.1219910E+02  0.7668223E-02  0.1166367E-02  0.1155675E-02  0.9999999E-07  0.9999996E-07  0.9999998E-05
  0.1223849E+02  0.7668145E-02  0.1166407E-02  0.1155713E-02  0.9999999E-07  0.9999996E-07  0.9999998E-05
  0.1227064E+02  0.7668117E-02  0.1166421E-02  0.1155727E-02  0.9999999E-07  0.9999996E-07  0.9999998E-05
  0.1230868E+02  0.7668095E-02  0.1166432E-02  0.1155738E-02  0.9999999E-07  0.9999996E-07  0.9999998E-05
  0.1236680E+02  0.7668068E-02  0.1166445E-02  0.1155752E-02  0.9999999E-07  0.9999996E-07  0.9999998E-05
  0.1245557E+02  0.7668025E-02  0.1166466E-02  0.1155774E-02  0.9999999E-07  0.9999996E-07  0.9999998E-05
  0.1256966E+02  0.7667960E-02  0.1166498E-02  0.1155807E-02  0.9999999E-07  0.9999996E-07  0.9999998E-05
  0.1260621E+02  0.7667874E-02  0.1166542E-02  0.1155849E-02  0.9999999E-07  0.9999996E-07  0.9999998E-05
  0.1264744E+02  0.7667846E-02  0.1166556E-02  0.1155863E-02  0.9999999E-07  0.9999996E-07  0.9999998E-05
  0.1269395E+02  0.7667815E-02  0.1166572E-02  0.1155878E-02  0.9999999E-07  0.9999996E-07  0.9999998E-05
  0.1275973E+02  0.7667779E-02  0.1166589E-02  0.1155896E-02  0.9999999E-07  0.9999996E-07  0.9999998E-05
  0.1286021E+02  0.7667730E-02  0.1166614E-02  0.1155922E-02  0.9999999E-07  0.9999996E-07  0.9999998E-05
  0.1295804E+02  0.7667654E-02  0.1166651E-02  0.1155959E-02  0.9999999E-07  0.9999996E-07  0.9999998E-05
  0.1298778E+02  0.7667583E-02  0.1166688E-02  0.1155994E-02  0.9999999E-07  0.9999996E-07  0.9999998E-05
  0.1302984E+02  0.7667561E-02  0.1166699E-02  0.1156005E-02  0.9999999E-07  0.9999996E-07  0.9999998E-05
  0.1308933E+02  0.7667531E-02  0.1166714E-02  0.1156021E-02  0.9999999E-07  0.9999996E-07  0.9999998E-05
  0.1317346E+02  0.7667489E-02  0.1166735E-02  0.1156042E-02  0.9999999E-07  0.9999996E-07  0.9999998E-05
  0.1329243E+02  0.7667431E-02  0.1166763E-02  0.1156071E-02  0.9999999E-07  0.9999996E-07  0.9999998E-05
  0.1334976E+02  0.7667354E-02  0.1166802E-02  0.1156109E-02  0.9999999E-07  0.9999996E-07  0.9999998E-05
  0.1337771E+02  0.7667318E-02  0.1166820E-02  0.1156127E-02  0.9999999E-07  0.9999996E-07  0.9999998E-05
  0.1341468E+02  0.7667300E-02  0.1166829E-02  0.1156136E-02  0.9999999E-07  0.9999996E-07  0.9999998E-05
  0.1347116E+02  0.7667278E-02  0.1166840E-02  0.1156147E-02  0.9999999E-07  0.9999996E-07  0.9999998E-05
  0.1355744E+02  0.7667245E-02  0.1166856E-02  0.1156164E-02  0.9999999E-07  0.9999996E-07  0.9999998E-05
  0.1367226E+02  0.7667197E-02  0.1166880E-02  0.1156188E-02  0.9999999E-07  0.9999996E-07  0.9999998E-05
  0.1371096E+02  0.7667139E-02  0.1166910E-02  0.1156216E-02  0.9999999E-07  0.9999996E-07  0.9999998E-05
  0.1375135E+02  0.7667120E-02  0.1166919E-02  0.1156226E-02  0.9999999E-07  0.9999996E-07  0.9999998E-05
  0.1379497E+02  0.7667101E-02  0.1166929E-02  0.1156235E-02  0.9999999E-07  0.9999996E-07  0.9999998E-05
  0.1385666E+02  0.7667081E-02  0.1166939E-02  0.1156246E-02  0.9999999E-07  0.9999996E-07  0.9999998E-05
  0.1395089E+02  0.7667054E-02  0.1166952E-02  0.1156259E-02  0.9999999E-07  0.9999996E-07  0.9999998E-05
  0.1405440E+02  0.7667017E-02  0.1166970E-02  0.1156278E-02  0.9999999E-07  0.9999996E-07  0.9999998E-05
  0.1408547E+02  0.7666980E-02  0.1166989E-02  0.1156296E-02  0.9999999E-07  0.9999996E-07  0.9999998E-05
  0.1412940E+02  0.7666970E-02  0.1166994E-02  0.1156301E-02  0.9999999E-07  0.9999996E-07  0.9999998E-05
  0.1418752E+02  0.7666955E-02  0.1167001E-02  0.1156308E-02  0.9999999E-07  0.9999996E-07  0.9999998E-05
  0.1426971E+02  0.7666938E-02  0.1167010E-02  0.1156317E-02  0.9999999E-07  0.9999996E-07  0.9999998E-05
  0.1437844E+02  0.7666915E-02  0.1167021E-02  0.1156329E-02  0.9999999E-07  0.9999996E-07  0.9999998E-05
  0.1445054E+02  0.7666889E-02  0.1167035E-02  0.1156342E-02  0.9999999E-07  0.9999996E-07  0.9999998E-05
  0.1447754E+02  0.7666873E-02  0.1167043E-02  0.1156350E-02  0.9999999E-07  0.9999996E-07  0.9999998E-05
  0.1451572E+02  0.7666867E-02  0.1167046E-02  0.1156352E-02  0.9999999E-07  0.9999996E-07  0.9999998E-05
  0.1457404E+02  0.7666859E-02  0.1167049E-02  0.1156356E-02  0.9999999E-07  0.9999996E-07  0.9999998E-05
  0.1466313E+02  0.7666848E-02  0.1167055E-02  0.1156362E-02  0.9999999E-07  0.9999996E-07  0.9999998E-05
  0.1477822E+02  0.7666834E-02  0.1167062E-02  0.1156369E-02  0.9999999E-07  0.9999996E-07  0.9999998E-05
  0.1481522E+02  0.7666818E-02  0.1167070E-02  0.1156377E-02  0.9999999E-07  0.9999996E-07  0.9999998E-05
  0.1485077E+02  0.7666813E-02  0.1167072E-02  0.1156379E-02  0.9999999E-07  0.9999996E-07  0.9999998E-05
  0.1489283E+02  0.7666809E-02  0.1167074E-02  0.1156382E-02  0.9999999E-07  0.9999996E-07  0.9999998E-05
  0.1495232E+02  0.7666804E-02  0.1167077E-02  0.1156384E-02  0.9999999E-07  0.9999996E-07  0.9999998E-05
  0.1504318E+02  0.7666798E-02  0.1167080E-02  0.1156387E-02  0.9999999E-07  0.9999996E-07  0.9999998E-05
  0.1515223E+02  0.7666790E-02  0.1167084E-02  0.1156391E-02  0.9999999E-07  0.9999996E-07  0.9999998E-05
  0.1518529E+02  0.7666782E-02  0.1167088E-02  0.1156395E-02  0.9999999E-07  0.9999996E-07  0.9999998E-05
  0.1522903E+02  0.7666780E-02  0.1167089E-02  0.1156396E-02  0.9999999E-07  0.9999996E-07  0.9999998E-05
  0.1528357E+02  0.7666777E-02  0.1167091E-02  0.1156398E-02  0.9999999E-07  0.9999996E-07  0.9999998E-05
  0.1536072E+02  0.7666774E-02  0.1167092E-02  0.1156399E-02  0.9999999E-07  0.9999996E-07  0.9999998E-05
  0.1547855E+02  0.7666770E-02  0.1167094E-02  0.1156401E-02  0.9999999E-07  0.9999996E-07  0.9999998E-05
  0.1551723E+02  0.7666765E-02  0.1167096E-02  0.1156404E-02  0.9999999E-07  0.9999996E-07  0.9999998E-05
  0.1553514E+02  0.7666764E-02  0.1167097E-02  0.1156404E-02  0.9999999E-07  0.9999996E-07  0.9999998E-05