title = "dataset surfx"
variables = "x", "y", "z","h+1","fe+3","so4-2","zn+2","fe+2","cu+2","=feoh(s)"
zone t = "T_j, T =  2.000E+01 hours", i =  101, j =    1, k =    1,  f=point
  0.0000000E+00  0.0000000E+00  0.0000000E+00  0.1232655E-02  0.1000000E-09  0.2500000E-02  0.1000000E-02  0.1000000E-04  0.1000000E-02  0.5001238E-06
  0.0000000E+00  0.0000000E+00  0.1600000E+00  0.1232655E-02  0.1000000E-09  0.2500000E-02  0.1000000E-02  0.1000000E-04  0.1000000E-02  0.5001238E-06
  0.0000000E+00  0.0000000E+00  0.3200000E+00  0.1232655E-02  0.1000000E-09  0.2500000E-02  0.1000000E-02  0.1000000E-04  0.1000000E-02  0.5001238E-06
  0.0000000E+00  0.0000000E+00  0.4800000E+00  0.1232655E-02  0.1000000E-09  0.2500000E-02  0.1000000E-02  0.1000000E-04  0.1000000E-02  0.5001239E-06
  0.0000000E+00  0.0000000E+00  0.6400000E+00  0.1232655E-02  0.1000000E-09  0.2500000E-02  0.1000000E-02  0.1000000E-04  0.1000000E-02  0.5001238E-06
  0.0000000E+00  0.0000000E+00  0.8000000E+00  0.1232655E-02  0.1000000E-09  0.2500000E-02  0.1000000E-02  0.1000000E-04  0.1000000E-02  0.5001239E-06
  0.0000000E+00  0.0000000E+00  0.9600000E+00  0.1232655E-02  0.1000000E-09  0.2500000E-02  0.1000000E-02  0.1000000E-04  0.1000000E-02  0.5001239E-06
  0.0000000E+00  0.0000000E+00  0.1120000E+01  0.1232655E-02  0.1000000E-09  0.2500000E-02  0.1000000E-02  0.1000000E-04  0.1000000E-02  0.5001238E-06
  0.0000000E+00  0.0000000E+00  0.1280000E+01  0.1232655E-02  0.1000000E-09  0.2500000E-02  0.1000000E-02  0.1000000E-04  0.1000000E-02  0.5001239E-06
  0.0000000E+00  0.0000000E+00  0.1440000E+01  0.1232655E-02  0.1000000E-09  0.2500000E-02  0.1000000E-02  0.1000000E-04  0.1000000E-02  0.5001239E-06
  0.0000000E+00  0.0000000E+00  0.1600000E+01  0.1232655E-02  0.1000000E-09  0.2500000E-02  0.1000000E-02  0.1000000E-04  0.1000000E-02  0.5001238E-06
  0.0000000E+00  0.0000000E+00  0.1760000E+01  0.1232654E-02  0.1000000E-09  0.2500000E-02  0.1000000E-02  0.1000000E-04  0.1000000E-02  0.5001241E-06
  0.0000000E+00  0.0000000E+00  0.1920000E+01  0.1232643E-02  0.1000000E-09  0.2500000E-02  0.1000000E-02  0.1000000E-04  0.1000006E-02  0.5001284E-06
  0.0000000E+00  0.0000000E+00  0.2080000E+01  0.1232403E-02  0.1000000E-09  0.2500000E-02  0.1000001E-02  0.1000001E-04  0.1000124E-02  0.5002201E-06
  0.0000000E+00  0.0000000E+00  0.2240000E+01  0.1228149E-02  0.1000000E-09  0.2500000E-02  0.1000020E-02  0.1000011E-04  0.1002232E-02  0.5018545E-06
  0.0000000E+00  0.0000000E+00  0.2400000E+01  0.1169853E-02  0.1000000E-09  0.2500000E-02  0.1000273E-02  0.1000147E-04  0.1031116E-02  0.5253167E-06
  0.0000000E+00  0.0000000E+00  0.2560000E+01  0.3435348E-03  0.1000000E-09  0.2500000E-02  0.1003613E-02  0.1001939E-04  0.1441190E-02  0.1282762E-05
  0.0000000E+00  0.0000000E+00  0.2720000E+01  0.2482996E-03  0.1000000E-09  0.2500000E-02  0.1003927E-02  0.1002110E-04  0.1487400E-02  0.1370239E-05
  0.0000000E+00  0.0000000E+00  0.2880000E+01  0.2476615E-03  0.1000000E-09  0.2500000E-02  0.1003923E-02  0.1002108E-04  0.1488680E-02  0.1369966E-05
  0.0000000E+00  0.0000000E+00  0.3040000E+01  0.2476595E-03  0.1000000E-09  0.2500000E-02  0.1003919E-02  0.1002106E-04  0.1488799E-02  0.1369917E-05
  0.0000000E+00  0.0000000E+00  0.3200000E+01  0.2476511E-03  0.1000000E-09  0.2500000E-02  0.1003921E-02  0.1002106E-04  0.1488797E-02  0.1369921E-05
  0.0000000E+00  0.0000000E+00  0.3360000E+01  0.2476592E-03  0.1000000E-09  0.2500000E-02  0.1003928E-02  0.1002110E-04  0.1488761E-02  0.1369933E-05
  0.0000000E+00  0.0000000E+00  0.3520000E+01  0.2476570E-03  0.1000000E-09  0.2500000E-02  0.1003947E-02  0.1002119E-04  0.1488672E-02  0.1369971E-05
  0.0000000E+00  0.0000000E+00  0.3680000E+01  0.2476575E-03  0.1000000E-09  0.2500000E-02  0.1003967E-02  0.1002130E-04  0.1488548E-02  0.1370022E-05
  0.0000000E+00  0.0000000E+00  0.3840000E+01  0.2476396E-03  0.1000000E-09  0.2500000E-02  0.1003968E-02  0.1002132E-04  0.1488412E-02  0.1370086E-05
  0.0000000E+00  0.0000000E+00  0.4000000E+01  0.2476229E-03  0.1000000E-09  0.2500000E-02  0.1003961E-02  0.1002128E-04  0.1488306E-02  0.1370138E-05
  0.0000000E+00  0.0000000E+00  0.4160000E+01  0.2476214E-03  0.1000000E-09  0.2500000E-02  0.1003946E-02  0.1002121E-04  0.1488299E-02  0.1370141E-05
  0.0000000E+00  0.0000000E+00  0.4320000E+01  0.2476192E-03  0.1000000E-09  0.2500000E-02  0.1003926E-02  0.1002110E-04  0.1488327E-02  0.1370131E-05
  0.0000000E+00  0.0000000E+00  0.4480000E+01  0.2476485E-03  0.1000000E-09  0.2500000E-02  0.1003908E-02  0.1002101E-04  0.1488380E-02  0.1370097E-05
  0.0000000E+00  0.0000000E+00  0.4640000E+01  0.2476375E-03  0.1000000E-09  0.2500000E-02  0.1003905E-02  0.1002098E-04  0.1488461E-02  0.1370068E-05
  0.0000000E+00  0.0000000E+00  0.4800000E+01  0.2476447E-03  0.1000000E-09  0.2500000E-02  0.1003907E-02  0.1002099E-04  0.1488537E-02  0.1370033E-05
  0.0000000E+00  0.0000000E+00  0.4960000E+01  0.2476472E-03  0.1000000E-09  0.2500000E-02  0.1003915E-02  0.1002102E-04  0.1488590E-02  0.1370009E-05
  0.0000000E+00  0.0000000E+00  0.5120000E+01  0.2476454E-03  0.1000000E-09  0.2500000E-02  0.1003928E-02  0.1002109E-04  0.1488599E-02  0.1370006E-05
  0.0000000E+00  0.0000000E+00  0.5280000E+01  0.2476732E-03  0.1000000E-09  0.2500000E-02  0.1003940E-02  0.1002115E-04  0.1488575E-02  0.1370005E-05
  0.0000000E+00  0.0000000E+00  0.5440000E+01  0.2476217E-03  0.1000000E-09  0.2500000E-02  0.1003954E-02  0.1002122E-04  0.1488567E-02  0.1370029E-05
  0.0000000E+00  0.0000000E+00  0.5600000E+01  0.2476543E-03  0.1000000E-09  0.2500000E-02  0.1004030E-02  0.1002147E-04  0.1488464E-02  0.1370059E-05
  0.0000000E+00  0.0000000E+00  0.5760000E+01  0.2475221E-03  0.1000000E-09  0.2500000E-02  0.1005270E-02  0.1002529E-04  0.1487247E-02  0.1370619E-05
  0.0000000E+00  0.0000000E+00  0.5920000E+01  0.2455955E-03  0.1000000E-09  0.2500000E-02  0.1029795E-02  0.1010073E-04  0.1463495E-02  0.1381417E-05
  0.0000000E+00  0.0000000E+00  0.6080000E+01  0.2151300E-03  0.1000000E-09  0.2500000E-02  0.1391582E-02  0.1121450E-04  0.1113331E-02  0.1577789E-05
  0.0000000E+00  0.0000000E+00  0.6240000E+01  0.3610939E-04  0.1000000E-09  0.2500000E-02  0.2588751E-02  0.1489396E-04  0.3795802E-05  0.8896455E-05
  0.0000000E+00  0.0000000E+00  0.6400000E+01  0.3371300E-04  0.1000000E-09  0.2500000E-02  0.2593322E-02  0.1491168E-04  0.1558447E-08  0.9404482E-05
  0.0000000E+00  0.0000000E+00  0.6560000E+01  0.3371054E-04  0.1000000E-09  0.2500000E-02  0.2593169E-02  0.1490934E-04  0.6507548E-09  0.9404890E-05
  0.0000000E+00  0.0000000E+00  0.6720000E+01  0.3371271E-04  0.1000000E-09  0.2500000E-02  0.2593006E-02  0.1490765E-04  0.6507158E-09  0.9405180E-05
  0.0000000E+00  0.0000000E+00  0.6880000E+01  0.3371103E-04  0.1000000E-09  0.2500000E-02  0.2593027E-02  0.1490812E-04  0.6502544E-09  0.9405147E-05
  0.0000000E+00  0.0000000E+00  0.7040000E+01  0.3371441E-04  0.1000000E-09  0.2500000E-02  0.2593184E-02  0.1491028E-04  0.6509749E-09  0.9404865E-05
  0.0000000E+00  0.0000000E+00  0.7200000E+01  0.3371364E-04  0.1000000E-09  0.2500000E-02  0.2593380E-02  0.1491538E-04  0.6508103E-09  0.9404510E-05
  0.0000000E+00  0.0000000E+00  0.7360000E+01  0.3371220E-04  0.1000000E-09  0.2500000E-02  0.2593404E-02  0.1492867E-04  0.6504299E-09  0.9404454E-05
  0.0000000E+00  0.0000000E+00  0.7520000E+01  0.3371858E-04  0.1000000E-09  0.2500000E-02  0.2593340E-02  0.1497484E-04  0.6510176E-09  0.9404512E-05
  0.0000000E+00  0.0000000E+00  0.7680000E+01  0.3371015E-04  0.1000000E-09  0.2500000E-02  0.2593104E-02  0.1514533E-04  0.6506705E-09  0.9404790E-05
  0.0000000E+00  0.0000000E+00  0.7840000E+01  0.3370833E-04  0.1000000E-09  0.2500000E-02  0.2592364E-02  0.1577622E-04  0.6504250E-09  0.9405525E-05
  0.0000000E+00  0.0000000E+00  0.8000000E+01  0.3370418E-04  0.1000000E-09  0.2500000E-02  0.2589897E-02  0.1809747E-04  0.6504189E-09  0.9407773E-05
  0.0000000E+00  0.0000000E+00  0.8160000E+01  0.3367276E-04  0.1000000E-09  0.2500000E-02  0.2580816E-02  0.2666025E-04  0.6489807E-09  0.9416072E-05
  0.0000000E+00  0.0000000E+00  0.8320000E+01  0.3355373E-04  0.1000000E-09  0.2500000E-02  0.2545035E-02  0.5700180E-04  0.6437521E-09  0.9452047E-05
  0.0000000E+00  0.0000000E+00  0.8480000E+01  0.3308597E-04  0.1000000E-09  0.2500000E-02  0.2404630E-02  0.1859520E-03  0.6267153E-09  0.9587498E-05
  0.0000000E+00  0.0000000E+00  0.8640000E+01  0.2260191E-04  0.1000000E-09  0.2500000E-02  0.1018447E-02  0.2222498E-03  0.2836905E-09  0.1416950E-04
  0.0000000E+00  0.0000000E+00  0.8800000E+01 -0.1285920E-05  0.1000000E-09  0.2500000E-02  0.2366712E-10  0.2517490E-10  0.4297178E-13  0.7542150E-02
  0.0000000E+00  0.0000000E+00  0.8960000E+01 -0.1381466E-05  0.1000000E-09  0.2500000E-02  0.2223252E-13  0.3466836E-11  0.4530517E-13  0.7666748E-02
  0.0000000E+00  0.0000000E+00  0.9120000E+01 -0.1381467E-05  0.1000000E-09  0.2500000E-02  0.2223242E-13  0.3466833E-11  0.4530521E-13  0.7666748E-02
  0.0000000E+00  0.0000000E+00  0.9280000E+01 -0.1381467E-05  0.1000000E-09  0.2500000E-02  0.2223242E-13  0.3466833E-11  0.4530521E-13  0.7666748E-02
  0.0000000E+00  0.0000000E+00  0.9440000E+01 -0.1381467E-05  0.1000000E-09  0.2500000E-02  0.2223242E-13  0.3466833E-11  0.4530521E-13  0.7666748E-02
  0.0000000E+00  0.0000000E+00  0.9600000E+01 -0.1381467E-05  0.1000000E-09  0.2500000E-02  0.2223242E-13  0.3466833E-11  0.4530521E-13  0.7666748E-02
  0.0000000E+00  0.0000000E+00  0.9760000E+01 -0.1381467E-05  0.1000000E-09  0.2500000E-02  0.2223242E-13  0.3466833E-11  0.4530521E-13  0.7666748E-02
  0.0000000E+00  0.0000000E+00  0.9920000E+01 -0.1381467E-05  0.1000000E-09  0.2500000E-02  0.2223242E-13  0.3466833E-11  0.4530521E-13  0.7666748E-02
  0.0000000E+00  0.0000000E+00  0.1008000E+02 -0.1381467E-05  0.1000000E-09  0.2500000E-02  0.2223242E-13  0.3466833E-11  0.4530521E-13  0.7666748E-02
  0.0000000E+00  0.0000000E+00  0.1024000E+02 -0.1381467E-05  0.1000000E-09  0.2500000E-02  0.2223242E-13  0.3466833E-11  0.4530521E-13  0.7666748E-02
  0.0000000E+00  0.0000000E+00  0.1040000E+02 -0.1381467E-05  0.1000000E-09  0.2500000E-02  0.2223242E-13  0.3466833E-11  0.4530521E-13  0.7666748E-02
  0.0000000E+00  0.0000000E+00  0.1056000E+02 -0.1381467E-05  0.1000000E-09  0.2500000E-02  0.2223242E-13  0.3466833E-11  0.4530521E-13  0.7666748E-02
  0.0000000E+00  0.0000000E+00  0.1072000E+02 -0.1381467E-05  0.1000000E-09  0.2500000E-02  0.2223242E-13  0.3466833E-11  0.4530521E-13  0.7666748E-02
  0.0000000E+00  0.0000000E+00  0.1088000E+02 -0.1381467E-05  0.1000000E-09  0.2500000E-02  0.2223242E-13  0.3466833E-11  0.4530521E-13  0.7666748E-02
  0.0000000E+00  0.0000000E+00  0.1104000E+02 -0.1381467E-05  0.1000000E-09  0.2500000E-02  0.2223242E-13  0.3466833E-11  0.4530521E-13  0.7666748E-02
  0.0000000E+00  0.0000000E+00  0.1120000E+02 -0.1381467E-05  0.1000000E-09  0.2500000E-02  0.2223242E-13  0.3466833E-11  0.4530521E-13  0.7666748E-02
  0.0000000E+00  0.0000000E+00  0.1136000E+02 -0.1381467E-05  0.1000000E-09  0.2500000E-02  0.2223242E-13  0.3466833E-11  0.4530521E-13  0.7666748E-02
  0.0000000E+00  0.0000000E+00  0.1152000E+02 -0.1381467E-05  0.1000000E-09  0.2500000E-02  0.2223242E-13  0.3466833E-11  0.4530521E-13  0.7666748E-02
  0.0000000E+00  0.0000000E+00  0.1168000E+02 -0.1381467E-05  0.1000000E-09  0.2500000E-02  0.2223242E-13  0.3466833E-11  0.4530521E-13  0.7666748E-02
  0.0000000E+00  0.0000000E+00  0.1184000E+02 -0.1381467E-05  0.1000000E-09  0.2500000E-02  0.2223242E-13  0.3466833E-11  0.4530522E-13  0.7666748E-02
  0.0000000E+00  0.0000000E+00  0.1200000E+02 -0.1381467E-05  0.1000000E-09  0.2500000E-02  0.2223242E-13  0.3466833E-11  0.4530522E-13  0.7666748E-02
  0.0000000E+00  0.0000000E+00  0.1216000E+02 -0.1381467E-05  0.1000000E-09  0.2500000E-02  0.2223242E-13  0.3466833E-11  0.4530522E-13  0.7666748E-02
  0.0000000E+00  0.0000000E+00  0.1232000E+02 -0.1381467E-05  0.1000000E-09  0.2500000E-02  0.2223242E-13  0.3466832E-11  0.4530522E-13  0.7666748E-02
  0.0000000E+00  0.0000000E+00  0.1248000E+02 -0.1381467E-05  0.1000000E-09  0.2500000E-02  0.2223242E-13  0.3466832E-11  0.4530522E-13  0.7666748E-02
  0.0000000E+00  0.0000000E+00  0.1264000E+02 -0.1381467E-05  0.1000000E-09  0.2500000E-02  0.2223242E-13  0.3466832E-11  0.4530522E-13  0.7666748E-02
  0.0000000E+00  0.0000000E+00  0.1280000E+02 -0.1381467E-05  0.1000000E-09  0.2500000E-02  0.2223242E-13  0.3466832E-11  0.4530522E-13  0.7666748E-02
  0.0000000E+00  0.0000000E+00  0.1296000E+02 -0.1381467E-05  0.1000000E-09  0.2500000E-02  0.2223242E-13  0.3466832E-11  0.4530522E-13  0.7666748E-02
  0.0000000E+00  0.0000000E+00  0.1312000E+02 -0.1381467E-05  0.1000000E-09  0.2500000E-02  0.2223242E-13  0.3466832E-11  0.4530522E-13  0.7666748E-02
  0.0000000E+00  0.0000000E+00  0.1328000E+02 -0.1381467E-05  0.1000000E-09  0.2500000E-02  0.2223242E-13  0.3466832E-11  0.4530522E-13  0.7666748E-02
  0.0000000E+00  0.0000000E+00  0.1344000E+02 -0.1381467E-05  0.1000000E-09  0.2500000E-02  0.2223242E-13  0.3466832E-11  0.4530522E-13  0.7666748E-02
  0.0000000E+00  0.0000000E+00  0.1360000E+02 -0.1381467E-05  0.1000000E-09  0.2500000E-02  0.2223242E-13  0.3466832E-11  0.4530522E-13  0.7666748E-02
  0.0000000E+00  0.0000000E+00  0.1376000E+02 -0.1381467E-05  0.1000000E-09  0.2500000E-02  0.2223242E-13  0.3466832E-11  0.4530522E-13  0.7666748E-02
  0.0000000E+00  0.0000000E+00  0.1392000E+02 -0.1381467E-05  0.1000000E-09  0.2500000E-02  0.2223242E-13  0.3466832E-11  0.4530522E-13  0.7666748E-02
  0.0000000E+00  0.0000000E+00  0.1408000E+02 -0.1381467E-05  0.1000000E-09  0.2500000E-02  0.2223242E-13  0.3466832E-11  0.4530522E-13  0.7666748E-02
  0.0000000E+00  0.0000000E+00  0.1424000E+02 -0.1381467E-05  0.1000000E-09  0.2500000E-02  0.2223242E-13  0.3466832E-11  0.4530522E-13  0.7666748E-02
  0.0000000E+00  0.0000000E+00  0.1440000E+02 -0.1381467E-05  0.1000000E-09  0.2500000E-02  0.2223242E-13  0.3466832E-11  0.4530522E-13  0.7666748E-02
  0.0000000E+00  0.0000000E+00  0.1456000E+02 -0.1381467E-05  0.1000000E-09  0.2500000E-02  0.2223242E-13  0.3466832E-11  0.4530522E-13  0.7666748E-02
  0.0000000E+00  0.0000000E+00  0.1472000E+02 -0.1381467E-05  0.1000000E-09  0.2500000E-02  0.2223242E-13  0.3466832E-11  0.4530522E-13  0.7666748E-02
  0.0000000E+00  0.0000000E+00  0.1488000E+02 -0.1381467E-05  0.1000000E-09  0.2500000E-02  0.2223242E-13  0.3466832E-11  0.4530522E-13  0.7666748E-02
  0.0000000E+00  0.0000000E+00  0.1504000E+02 -0.1381467E-05  0.1000000E-09  0.2500000E-02  0.2223242E-13  0.3466832E-11  0.4530522E-13  0.7666748E-02
  0.0000000E+00  0.0000000E+00  0.1520000E+02 -0.1381467E-05  0.1000000E-09  0.2500000E-02  0.2223242E-13  0.3466832E-11  0.4530522E-13  0.7666748E-02
  0.0000000E+00  0.0000000E+00  0.1536000E+02 -0.1381467E-05  0.1000000E-09  0.2500000E-02  0.2223242E-13  0.3466832E-11  0.4530522E-13  0.7666748E-02
  0.0000000E+00  0.0000000E+00  0.1552000E+02 -0.1381467E-05  0.1000000E-09  0.2500000E-02  0.2223242E-13  0.3466832E-11  0.4530522E-13  0.7666748E-02
  0.0000000E+00  0.0000000E+00  0.1568000E+02 -0.1381467E-05  0.1000000E-09  0.2500000E-02  0.2223242E-13  0.3466832E-11  0.4530522E-13  0.7666748E-02
  0.0000000E+00  0.0000000E+00  0.1584000E+02 -0.1381467E-05  0.1000000E-09  0.2500000E-02  0.2223242E-13  0.3466832E-11  0.4530522E-13  0.7666748E-02
  0.0000000E+00  0.0000000E+00  0.1600000E+02 -0.1381468E-05  0.1000000E-09  0.2500000E-02  0.2223242E-13  0.3466832E-11  0.4530523E-13  0.7666748E-02
