title = "dataset surfx"
variables = "x", "y", "z","=feoh(s)","=feoh2+(s)","=feo-(s)","=feozn+(s)","=feocu+(s)","=feofe+(s)"
zone t = "S_i, T =  2.000E+01 hours", i =  101, j =    1, k =    1,  f=point
  0.0000000E+00  0.0000000E+00  0.0000000E+00  0.5001238E-06  0.9769480E-02  0.5886694E-12  0.2790085E-05  0.2276801E-03  0.1500194E-07
  0.0000000E+00  0.0000000E+00  0.1600000E+00  0.5001238E-06  0.9769480E-02  0.5886694E-12  0.2790085E-05  0.2276801E-03  0.1500194E-07
  0.0000000E+00  0.0000000E+00  0.3200000E+00  0.5001238E-06  0.9769480E-02  0.5886694E-12  0.2790085E-05  0.2276801E-03  0.1500194E-07
  0.0000000E+00  0.0000000E+00  0.4800000E+00  0.5001239E-06  0.9769480E-02  0.5886694E-12  0.2790085E-05  0.2276801E-03  0.1500194E-07
  0.0000000E+00  0.0000000E+00  0.6400000E+00  0.5001238E-06  0.9769480E-02  0.5886694E-12  0.2790085E-05  0.2276801E-03  0.1500194E-07
  0.0000000E+00  0.0000000E+00  0.8000000E+00  0.5001239E-06  0.9769480E-02  0.5886694E-12  0.2790085E-05  0.2276801E-03  0.1500194E-07
  0.0000000E+00  0.0000000E+00  0.9600000E+00  0.5001239E-06  0.9769480E-02  0.5886694E-12  0.2790085E-05  0.2276801E-03  0.1500194E-07
  0.0000000E+00  0.0000000E+00  0.1120000E+01  0.5001238E-06  0.9769480E-02  0.5886694E-12  0.2790085E-05  0.2276801E-03  0.1500194E-07
  0.0000000E+00  0.0000000E+00  0.1280000E+01  0.5001239E-06  0.9769480E-02  0.5886694E-12  0.2790085E-05  0.2276801E-03  0.1500194E-07
  0.0000000E+00  0.0000000E+00  0.1440000E+01  0.5001239E-06  0.9769480E-02  0.5886694E-12  0.2790085E-05  0.2276801E-03  0.1500194E-07
  0.0000000E+00  0.0000000E+00  0.1600000E+01  0.5001238E-06  0.9769480E-02  0.5886694E-12  0.2790085E-05  0.2276801E-03  0.1500194E-07
  0.0000000E+00  0.0000000E+00  0.1760000E+01  0.5001241E-06  0.9769480E-02  0.5886699E-12  0.2790087E-05  0.2276804E-03  0.1500195E-07
  0.0000000E+00  0.0000000E+00  0.1920000E+01  0.5001284E-06  0.9769475E-02  0.5886805E-12  0.2790138E-05  0.2276857E-03  0.1500222E-07
  0.0000000E+00  0.0000000E+00  0.2080000E+01  0.5002201E-06  0.9769365E-02  0.5889029E-12  0.2791195E-05  0.2277988E-03  0.1500790E-07
  0.0000000E+00  0.0000000E+00  0.2240000E+01  0.5018545E-06  0.9767405E-02  0.5928764E-12  0.2810082E-05  0.2298191E-03  0.1510938E-07
  0.0000000E+00  0.0000000E+00  0.2400000E+01  0.5253167E-06  0.9738162E-02  0.6515581E-12  0.3089000E-05  0.2598458E-03  0.1660800E-07
  0.0000000E+00  0.0000000E+00  0.2560000E+01  0.1282762E-05  0.6977131E-02  0.5422545E-11  0.2578703E-04  0.3021960E-02  0.1385408E-06
  0.0000000E+00  0.0000000E+00  0.2720000E+01  0.1370239E-05  0.5386718E-02  0.8014126E-11  0.3812029E-04  0.4609106E-02  0.2047933E-06
  0.0000000E+00  0.0000000E+00  0.2880000E+01  0.1369966E-05  0.5371862E-02  0.8033092E-11  0.3821111E-04  0.4624069E-02  0.2052808E-06
  0.0000000E+00  0.0000000E+00  0.3040000E+01  0.1369917E-05  0.5371631E-02  0.8032855E-11  0.3820993E-04  0.4624312E-02  0.2052746E-06
  0.0000000E+00  0.0000000E+00  0.3200000E+01  0.1369921E-05  0.5371465E-02  0.8033154E-11  0.3821140E-04  0.4624478E-02  0.2052824E-06
  0.0000000E+00  0.0000000E+00  0.3360000E+01  0.1369933E-05  0.5371686E-02  0.8032963E-11  0.3821075E-04  0.4624251E-02  0.2052781E-06
  0.0000000E+00  0.0000000E+00  0.3520000E+01  0.1369971E-05  0.5371783E-02  0.8033263E-11  0.3821284E-04  0.4624141E-02  0.2052874E-06
  0.0000000E+00  0.0000000E+00  0.3680000E+01  0.1370022E-05  0.5371990E-02  0.8033556E-11  0.3821491E-04  0.4623917E-02  0.2052968E-06
  0.0000000E+00  0.0000000E+00  0.3840000E+01  0.1370086E-05  0.5371844E-02  0.8034524E-11  0.3821944E-04  0.4624039E-02  0.2053213E-06
  0.0000000E+00  0.0000000E+00  0.4000000E+01  0.1370138E-05  0.5371676E-02  0.8035381E-11  0.3822313E-04  0.4624191E-02  0.2053421E-06
  0.0000000E+00  0.0000000E+00  0.4160000E+01  0.1370141E-05  0.5371657E-02  0.8035450E-11  0.3822288E-04  0.4624208E-02  0.2053423E-06
  0.0000000E+00  0.0000000E+00  0.4320000E+01  0.1370131E-05  0.5371567E-02  0.8035462E-11  0.3822218E-04  0.4624302E-02  0.2053404E-06
  0.0000000E+00  0.0000000E+00  0.4480000E+01  0.1370097E-05  0.5372073E-02  0.8034308E-11  0.3821607E-04  0.4623807E-02  0.2053092E-06
  0.0000000E+00  0.0000000E+00  0.4640000E+01  0.1370068E-05  0.5371723E-02  0.8034486E-11  0.3821683E-04  0.4624168E-02  0.2053134E-06
  0.0000000E+00  0.0000000E+00  0.4800000E+01  0.1370033E-05  0.5371748E-02  0.8034041E-11  0.3821487E-04  0.4624155E-02  0.2053025E-06
  0.0000000E+00  0.0000000E+00  0.4960000E+01  0.1370009E-05  0.5371714E-02  0.8033818E-11  0.3821419E-04  0.4624197E-02  0.2052978E-06
  0.0000000E+00  0.0000000E+00  0.5120000E+01  0.1370006E-05  0.5371664E-02  0.8033855E-11  0.3821484E-04  0.4624249E-02  0.2053001E-06
  0.0000000E+00  0.0000000E+00  0.5280000E+01  0.1370005E-05  0.5372263E-02  0.8032945E-11  0.3821099E-04  0.4623649E-02  0.2052782E-06
  0.0000000E+00  0.0000000E+00  0.5440000E+01  0.1370029E-05  0.5371240E-02  0.8034759E-11  0.3822013E-04  0.4624667E-02  0.2053258E-06
  0.0000000E+00  0.0000000E+00  0.5600000E+01  0.1370059E-05  0.5372064E-02  0.8033877E-11  0.3821880E-04  0.4623838E-02  0.2053084E-06
  0.0000000E+00  0.0000000E+00  0.5760000E+01  0.1370619E-05  0.5371394E-02  0.8041447E-11  0.3830212E-04  0.4624416E-02  0.2055804E-06
  0.0000000E+00  0.0000000E+00  0.5920000E+01  0.1381417E-05  0.5371705E-02  0.8168184E-11  0.3985623E-04  0.4622407E-02  0.2103973E-06
  0.0000000E+00  0.0000000E+00  0.6080000E+01  0.1577789E-05  0.5376070E-02  0.1064684E-10  0.7023271E-04  0.4585201E-02  0.3045927E-06
  0.0000000E+00  0.0000000E+00  0.6240000E+01  0.8896455E-05  0.5101474E-02  0.3567188E-09  0.4385244E-02  0.5244815E-03  0.1357428E-04
  0.0000000E+00  0.0000000E+00  0.6400000E+01  0.9404482E-05  0.5036018E-02  0.4038036E-09  0.4972783E-02  0.2437540E-06  0.1538420E-04
  0.0000000E+00  0.0000000E+00  0.6560000E+01  0.9404890E-05  0.5035860E-02  0.4038513E-09  0.4973055E-02  0.1017951E-06  0.1538356E-04
  0.0000000E+00  0.0000000E+00  0.6720000E+01  0.9405180E-05  0.5036329E-02  0.4038386E-09  0.4972570E-02  0.1017855E-06  0.1538128E-04
  0.0000000E+00  0.0000000E+00  0.6880000E+01  0.9405147E-05  0.5036062E-02  0.4038572E-09  0.4972843E-02  0.1017181E-06  0.1538249E-04
  0.0000000E+00  0.0000000E+00  0.7040000E+01  0.9404865E-05  0.5036424E-02  0.4038039E-09  0.4972507E-02  0.1018177E-06  0.1538273E-04
  0.0000000E+00  0.0000000E+00  0.7200000E+01  0.9404510E-05  0.5036132E-02  0.4037969E-09  0.4972818E-02  0.1017906E-06  0.1538778E-04
  0.0000000E+00  0.0000000E+00  0.7360000E+01  0.9404454E-05  0.5035890E-02  0.4038115E-09  0.4973049E-02  0.1017348E-06  0.1540206E-04
  0.0000000E+00  0.0000000E+00  0.7520000E+01  0.9404512E-05  0.5036869E-02  0.4037380E-09  0.4972018E-02  0.1018082E-06  0.1544687E-04
  0.0000000E+00  0.0000000E+00  0.7680000E+01  0.9404790E-05  0.5035756E-02  0.4038511E-09  0.4972947E-02  0.1017822E-06  0.1562709E-04
  0.0000000E+00  0.0000000E+00  0.7840000E+01  0.9405525E-05  0.5035861E-02  0.4039058E-09  0.4972181E-02  0.1017572E-06  0.1628020E-04
  0.0000000E+00  0.0000000E+00  0.8000000E+01  0.9407773E-05  0.5036400E-02  0.4040557E-09  0.4969247E-02  0.1017932E-06  0.1868240E-04
  0.0000000E+00  0.0000000E+00  0.8160000E+01  0.9416072E-05  0.5035989E-02  0.4048019E-09  0.4960801E-02  0.1017527E-06  0.2757205E-04
  0.0000000E+00  0.0000000E+00  0.8320000E+01  0.9452047E-05  0.5036578E-02  0.4078533E-09  0.4927832E-02  0.1016745E-06  0.5938576E-04
  0.0000000E+00  0.0000000E+00  0.8480000E+01  0.9587498E-05  0.5034901E-02  0.4197661E-09  0.4788896E-02  0.1018179E-06  0.1992891E-03
  0.0000000E+00  0.0000000E+00  0.8640000E+01  0.1416950E-04  0.4984991E-02  0.9260457E-09  0.4293189E-02  0.9805235E-07  0.5088004E-03
  0.0000000E+00  0.0000000E+00  0.8800000E+01  0.7542150E-02  0.1215644E-02  0.1075900E-02  0.9451268E-04  0.9517654E-07  0.6344696E-04
  0.0000000E+00  0.0000000E+00  0.8960000E+01  0.7666748E-02  0.1151482E-02  0.1173688E-02  0.9514822E-07  0.9514783E-07  0.9514785E-05
  0.0000000E+00  0.0000000E+00  0.9120000E+01  0.7666748E-02  0.1151482E-02  0.1173689E-02  0.9514786E-07  0.9514783E-07  0.9514785E-05
  0.0000000E+00  0.0000000E+00  0.9280000E+01  0.7666748E-02  0.1151482E-02  0.1173689E-02  0.9514786E-07  0.9514783E-07  0.9514785E-05
  0.0000000E+00  0.0000000E+00  0.9440000E+01  0.7666748E-02  0.1151482E-02  0.1173689E-02  0.9514786E-07  0.9514783E-07  0.9514785E-05
  0.0000000E+00  0.0000000E+00  0.9600000E+01  0.7666748E-02  0.1151482E-02  0.1173689E-02  0.9514786E-07  0.9514783E-07  0.9514785E-05
  0.0000000E+00  0.0000000E+00  0.9760000E+01  0.7666748E-02  0.1151482E-02  0.1173689E-02  0.9514786E-07  0.9514783E-07  0.9514785E-05
  0.0000000E+00  0.0000000E+00  0.9920000E+01  0.7666748E-02  0.1151482E-02  0.1173689E-02  0.9514786E-07  0.9514783E-07  0.9514785E-05
  0.0000000E+00  0.0000000E+00  0.1008000E+02  0.7666748E-02  0.1151482E-02  0.1173689E-02  0.9514786E-07  0.9514783E-07  0.9514785E-05
  0.0000000E+00  0.0000000E+00  0.1024000E+02  0.7666748E-02  0.1151482E-02  0.1173689E-02  0.9514786E-07  0.9514783E-07  0.9514785E-05
  0.0000000E+00  0.0000000E+00  0.1040000E+02  0.7666748E-02  0.1151482E-02  0.1173689E-02  0.9514786E-07  0.9514783E-07  0.9514785E-05
  0.0000000E+00  0.0000000E+00  0.1056000E+02  0.7666748E-02  0.1151482E-02  0.1173689E-02  0.9514786E-07  0.9514783E-07  0.9514785E-05
  0.0000000E+00  0.0000000E+00  0.1072000E+02  0.7666748E-02  0.1151482E-02  0.1173689E-02  0.9514786E-07  0.9514783E-07  0.9514785E-05
  0.0000000E+00  0.0000000E+00  0.1088000E+02  0.7666748E-02  0.1151481E-02  0.1173689E-02  0.9514786E-07  0.9514783E-07  0.9514785E-05
  0.0000000E+00  0.0000000E+00  0.1104000E+02  0.7666748E-02  0.1151481E-02  0.1173689E-02  0.9514786E-07  0.9514783E-07  0.9514785E-05
  0.0000000E+00  0.0000000E+00  0.1120000E+02  0.7666748E-02  0.1151481E-02  0.1173689E-02  0.9514786E-07  0.9514783E-07  0.9514785E-05
  0.0000000E+00  0.0000000E+00  0.1136000E+02  0.7666748E-02  0.1151481E-02  0.1173689E-02  0.9514786E-07  0.9514783E-07  0.9514785E-05
  0.0000000E+00  0.0000000E+00  0.1152000E+02  0.7666748E-02  0.1151481E-02  0.1173689E-02  0.9514786E-07  0.9514783E-07  0.9514785E-05
  0.0000000E+00  0.0000000E+00  0.1168000E+02  0.7666748E-02  0.1151481E-02  0.1173689E-02  0.9514786E-07  0.9514783E-07  0.9514785E-05
  0.0000000E+00  0.0000000E+00  0.1184000E+02  0.7666748E-02  0.1151481E-02  0.1173689E-02  0.9514786E-07  0.9514783E-07  0.9514785E-05
  0.0000000E+00  0.0000000E+00  0.1200000E+02  0.7666748E-02  0.1151481E-02  0.1173689E-02  0.9514786E-07  0.9514783E-07  0.9514785E-05
  0.0000000E+00  0.0000000E+00  0.1216000E+02  0.7666748E-02  0.1151481E-02  0.1173689E-02  0.9514786E-07  0.9514783E-07  0.9514785E-05
  0.0000000E+00  0.0000000E+00  0.1232000E+02  0.7666748E-02  0.1151481E-02  0.1173689E-02  0.9514786E-07  0.9514783E-07  0.9514785E-05
  0.0000000E+00  0.0000000E+00  0.1248000E+02  0.7666748E-02  0.1151481E-02  0.1173689E-02  0.9514786E-07  0.9514783E-07  0.9514785E-05
  0.0000000E+00  0.0000000E+00  0.1264000E+02  0.7666748E-02  0.1151481E-02  0.1173689E-02  0.9514786E-07  0.9514783E-07  0.9514785E-05
  0.0000000E+00  0.0000000E+00  0.1280000E+02  0.7666748E-02  0.1151481E-02  0.1173689E-02  0.9514786E-07  0.9514783E-07  0.9514785E-05
  0.0000000E+00  0.0000000E+00  0.1296000E+02  0.7666748E-02  0.1151481E-02  0.1173690E-02  0.9514786E-07  0.9514783E-07  0.9514785E-05
  0.0000000E+00  0.0000000E+00  0.1312000E+02  0.7666748E-02  0.1151481E-02  0.1173690E-02  0.9514786E-07  0.9514783E-07  0.9514785E-05
  0.0000000E+00  0.0000000E+00  0.1328000E+02  0.7666748E-02  0.1151481E-02  0.1173690E-02  0.9514786E-07  0.9514783E-07  0.9514785E-05
  0.0000000E+00  0.0000000E+00  0.1344000E+02  0.7666748E-02  0.1151481E-02  0.1173690E-02  0.9514786E-07  0.9514783E-07  0.9514785E-05
  0.0000000E+00  0.0000000E+00  0.1360000E+02  0.7666748E-02  0.1151481E-02  0.1173690E-02  0.9514786E-07  0.9514783E-07  0.9514785E-05
  0.0000000E+00  0.0000000E+00  0.1376000E+02  0.7666748E-02  0.1151481E-02  0.1173690E-02  0.9514786E-07  0.9514783E-07  0.9514785E-05
  0.0000000E+00  0.0000000E+00  0.1392000E+02  0.7666748E-02  0.1151481E-02  0.1173690E-02  0.9514786E-07  0.9514783E-07  0.9514785E-05
  0.0000000E+00  0.0000000E+00  0.1408000E+02  0.7666748E-02  0.1151481E-02  0.1173690E-02  0.9514786E-07  0.9514783E-07  0.9514785E-05
  0.0000000E+00  0.0000000E+00  0.1424000E+02  0.7666748E-02  0.1151481E-02  0.1173690E-02  0.9514786E-07  0.9514783E-07  0.9514785E-05
  0.0000000E+00  0.0000000E+00  0.1440000E+02  0.7666748E-02  0.1151481E-02  0.1173690E-02  0.9514786E-07  0.9514783E-07  0.9514785E-05
  0.0000000E+00  0.0000000E+00  0.1456000E+02  0.7666748E-02  0.1151481E-02  0.1173690E-02  0.9514786E-07  0.9514783E-07  0.9514785E-05
  0.0000000E+00  0.0000000E+00  0.1472000E+02  0.7666748E-02  0.1151481E-02  0.1173690E-02  0.9514786E-07  0.9514783E-07  0.9514785E-05
  0.0000000E+00  0.0000000E+00  0.1488000E+02  0.7666748E-02  0.1151481E-02  0.1173690E-02  0.9514786E-07  0.9514783E-07  0.9514785E-05
  0.0000000E+00  0.0000000E+00  0.1504000E+02  0.7666748E-02  0.1151481E-02  0.1173690E-02  0.9514786E-07  0.9514783E-07  0.9514785E-05
  0.0000000E+00  0.0000000E+00  0.1520000E+02  0.7666748E-02  0.1151481E-02  0.1173690E-02  0.9514786E-07  0.9514783E-07  0.9514785E-05
  0.0000000E+00  0.0000000E+00  0.1536000E+02  0.7666748E-02  0.1151481E-02  0.1173690E-02  0.9514786E-07  0.9514783E-07  0.9514785E-05
  0.0000000E+00  0.0000000E+00  0.1552000E+02  0.7666748E-02  0.1151481E-02  0.1173690E-02  0.9514786E-07  0.9514783E-07  0.9514785E-05
  0.0000000E+00  0.0000000E+00  0.1568000E+02  0.7666748E-02  0.1151481E-02  0.1173690E-02  0.9514786E-07  0.9514783E-07  0.9514785E-05
  0.0000000E+00  0.0000000E+00  0.1584000E+02  0.7666748E-02  0.1151481E-02  0.1173690E-02  0.9514786E-07  0.9514783E-07  0.9514785E-05
  0.0000000E+00  0.0000000E+00  0.1600000E+02  0.7666748E-02  0.1151481E-02  0.1173690E-02  0.9514786E-07  0.9514783E-07  0.9514785E-05
