title = "dataset phsweep"
variables = "pH","h+1","co3-2","ca+2","oh-","hco3-","h2co3aq"
zone t = "C_j, X_i, pH-sweep from 0-14", f=point
  0.0000000E+00  0.1324560E+01  0.1048183E-20  0.1000000E-02  0.1610618E-13  0.6916312E-11  0.9000344E-05
  0.2800000E+00  0.6758929E+00  0.3084787E-20  0.1000000E-02  0.2861549E-13  0.1250465E-10  0.9676764E-05
  0.5600000E+00  0.3435678E+00  0.8985836E-20  0.1000000E-02  0.5067375E-13  0.2255044E-10  0.1006408E-04
  0.8400000E+00  0.1744526E+00  0.2646173E-19  0.1000000E-02  0.9026910E-13  0.4077743E-10  0.1026798E-04
  0.1120000E+01  0.8867175E-01  0.7967516E-19  0.1000000E-02  0.1623644E-12  0.7414742E-10  0.1037329E-04
  0.1400000E+01  0.4520740E-01  0.2471173E-18  0.1000000E-02  0.2952994E-12  0.1358286E-09  0.1042710E-04
  0.1680000E+01  0.2315234E-01  0.7917950E-18  0.1000000E-02  0.5429599E-12  0.2508525E-09  0.1045447E-04
  0.1960000E+01  0.1191950E-01  0.2618267E-17  0.1000000E-02  0.1008085E-11  0.4669483E-09  0.1046839E-04
  0.2240000E+01  0.6168552E-02  0.8902137E-17  0.1000000E-02  0.1886855E-11  0.8752636E-09  0.1047549E-04
  0.2520000E+01  0.3206910E-02  0.3095595E-16  0.1000000E-02  0.3553925E-11  0.1649876E-08  0.1047913E-04
  0.2800000E+01  0.1673099E-02  0.1094448E-15  0.1000000E-02  0.6724149E-11  0.3122943E-08  0.1048101E-04
  0.3080000E+01  0.8750100E-03  0.3912636E-15  0.1000000E-02  0.1276023E-10  0.5927652E-08  0.1048198E-04
  0.3360000E+01  0.4583162E-03  0.1408354E-14  0.1000000E-02  0.2425871E-10  0.1127050E-07  0.1048248E-04
  0.3640000E+01  0.2402718E-03  0.5089425E-14  0.1000000E-02  0.4616682E-10  0.2145026E-07  0.1048275E-04
  0.3920000E+01  0.1260245E-03  0.1843213E-13  0.1000000E-02  0.8791084E-10  0.4084691E-07  0.1048288E-04
  0.4200000E+01  0.6611855E-04  0.6683376E-13  0.1000000E-02  0.1674519E-09  0.7780621E-07  0.1048296E-04
  0.4480000E+01  0.3469397E-04  0.2424882E-12  0.1000000E-02  0.3190141E-09  0.1482306E-06  0.1048299E-04
  0.4760000E+01  0.1820613E-04  0.8800974E-12  0.1000000E-02  0.6078101E-09  0.2824217E-06  0.1048301E-04
  0.5040000E+01  0.9554304E-05  0.3194836E-11  0.1000000E-02  0.1158101E-08  0.5381179E-06  0.1048302E-04
  0.5320000E+01  0.5014066E-05  0.1159869E-10  0.1000000E-02  0.2206662E-08  0.1025339E-05  0.1048303E-04
  0.5600000E+01  0.2631400E-05  0.4211092E-10  0.1000000E-02  0.4204672E-08  0.1953727E-05  0.1048303E-04
  0.5880000E+01  0.1380982E-05  0.1528973E-09  0.1000000E-02  0.8011863E-08  0.3722762E-05  0.1048303E-04
  0.6160000E+01  0.7247597E-06  0.5551706E-09  0.1000000E-02  0.1526654E-07  0.7093686E-05  0.1048303E-04
  0.6440000E+01  0.3803712E-06  0.2015980E-08  0.1000000E-02  0.2909084E-07  0.1351720E-04  0.1048302E-04
  0.6720000E+01  0.1996340E-06  0.7321576E-08  0.1000000E-02  0.5543541E-07  0.2575826E-04  0.1048300E-04
  0.7000000E+01  0.1047819E-06  0.2659698E-07  0.1000000E-02  0.1056446E-06  0.4908778E-04  0.1048298E-04
  0.7280000E+01  0.5500281E-07  0.9666448E-07  0.1000000E-02  0.2013545E-06  0.9355824E-04  0.1048292E-04
  0.7560000E+01  0.2887834E-07  0.3516358E-06  0.1000000E-02  0.3838651E-06  0.1783564E-03  0.1048282E-04
  0.7840000E+01  0.1516795E-07  0.1281323E-05  0.1000000E-02  0.7321339E-06  0.3401574E-03  0.1048262E-04
  0.8120000E+01  0.7972493E-08  0.4683937E-05  0.1000000E-02  0.1397553E-05  0.6492591E-03  0.1048223E-04
  0.8400000E+01  0.4196013E-08  0.1722406E-04  0.1000000E-02  0.2671946E-05  0.1241078E-02  0.1048146E-04
  0.8680000E+01  0.2213687E-08  0.6402609E-04  0.1000000E-02  0.5123192E-05  0.2378782E-02  0.1047987E-04
  0.8960000E+01  0.1172765E-08  0.2426662E-03  0.1000000E-02  0.9874963E-05  0.4581605E-02  0.1047643E-04
  0.9240000E+01  0.6257208E-09  0.9519172E-03  0.1000000E-02  0.1921663E-04  0.8900514E-02  0.1046823E-04
  0.9520000E+01  0.3376928E-09  0.3965949E-02  0.1000000E-02  0.3805577E-04  0.1755303E-01  0.1044581E-04
  0.9800000E+01  0.1853231E-09  0.1828670E-01  0.1000000E-02  0.7781435E-04  0.3550579E-01  0.1037249E-04
  0.1008000E+02  0.1036358E-09  0.9777746E-01  0.1000000E-02  0.1679722E-03  0.7452895E-01  0.1007375E-04
  0.1036000E+02  0.5841206E-10  0.5961922E+00  0.1000000E-02  0.3863879E-03  0.1616635E+00  0.8610162E-05
  0.1064000E+02  0.3083694E-10  0.2270470E+01  0.1000000E-02  0.7245396E-03  0.3117413E+00  0.8330807E-05
  0.1092000E+02  0.1618345E-10  0.8243580E+01  0.1000000E-02  0.1227007E-02  0.5940107E+00  0.8330807E-05
  0.1120000E+02  0.8493198E-11  0.2993063E+02  0.1000000E-02  0.1375756E-02  0.1131864E+01  0.8330807E-05
  0.1148000E+02  0.4457294E-11  0.1086715E+03  0.1000000E-02  0.2621448E-02  0.2156723E+01  0.8330807E-05
  0.1176000E+02  0.2339221E-11  0.3945625E+03  0.1000000E-02  0.4995067E-02  0.4109550E+01  0.8330807E-05
  0.1204000E+02  0.1227641E-11  0.1432570E+04  0.1000000E-02  0.9517903E-02  0.7830586E+01  0.8330807E-05
  0.1232000E+02  0.6442749E-12  0.5201347E+04  0.1000000E-02  0.1813599E-01  0.1492087E+02  0.8330807E-05
  0.1260000E+02  0.3381203E-12  0.1888495E+05  0.1000000E-02  0.3455742E-01  0.2843114E+02  0.8330807E-05
  0.1288000E+02  0.1774481E-12  0.6856711E+05  0.1000000E-02  0.6584780E-01  0.5417442E+02  0.8330807E-05
  0.1316000E+02  0.9312606E-13  0.2489521E+06  0.1000000E-02  0.1254704E+00  0.1032272E+03  0.8330807E-05
  0.1344000E+02  0.4887325E-13  0.9038906E+06  0.1000000E-02  0.2390789E+00  0.1966954E+03  0.8330807E-05
  0.1372000E+02  0.2564905E-13  0.3281828E+07  0.1000000E-02  0.4555555E+00  0.3747954E+03  0.8330807E-05
  0.1400000E+02  0.1346081E-13  0.1191560E+08  0.1000000E-02  0.8680431E+00  0.7141580E+03  0.8330807E-05
