title = "dataset steadfs"
variables = "x", "y", "z", "h_w", "p_w", "s_w", "theta_a"
zone t = "Flow variables, steady state" i =   11, j =   11, k =    1,  f=point
  0.0000000E+00  0.0000000E+00  0.0000000E+00  0.2000000E+01  0.2000000E+01  0.1000000E+01  0.1000000E+01
  0.1000000E+00  0.0000000E+00  0.0000000E+00  0.2498022E+01  0.2498022E+01  0.1000000E+01  0.1000000E+01
  0.2000000E+00  0.0000000E+00  0.0000000E+00  0.2720978E+01  0.2720978E+01  0.1000000E+01  0.1000000E+01
  0.3000000E+00  0.0000000E+00  0.0000000E+00  0.2848648E+01  0.2848648E+01  0.1000000E+01  0.1000000E+01
  0.4000000E+00  0.0000000E+00  0.0000000E+00  0.2933262E+01  0.2933262E+01  0.1000000E+01  0.1000000E+01
  0.5000000E+00  0.0000000E+00  0.0000000E+00  0.2993286E+01  0.2993286E+01  0.1000000E+01  0.1000000E+01
  0.6000000E+00  0.0000000E+00  0.0000000E+00  0.3036692E+01  0.3036692E+01  0.1000000E+01  0.1000000E+01
  0.7000000E+00  0.0000000E+00  0.0000000E+00  0.3067559E+01  0.3067559E+01  0.1000000E+01  0.1000000E+01
  0.8000000E+00  0.0000000E+00  0.0000000E+00  0.3088235E+01  0.3088235E+01  0.1000000E+01  0.1000000E+01
  0.9000000E+00  0.0000000E+00  0.0000000E+00  0.3100129E+01  0.3100129E+01  0.1000000E+01  0.1000000E+01
  0.1000000E+01  0.0000000E+00  0.0000000E+00  0.3104011E+01  0.3104011E+01  0.1000000E+01  0.1000000E+01
  0.0000000E+00  0.0000000E+00  0.1000000E+00  0.2500253E+01  0.2400253E+01  0.1000000E+01  0.1000000E+01
  0.1000000E+00  0.0000000E+00  0.1000000E+00  0.2635556E+01  0.2535556E+01  0.1000000E+01  0.1000000E+01
  0.2000000E+00  0.0000000E+00  0.1000000E+00  0.2768620E+01  0.2668620E+01  0.1000000E+01  0.1000000E+01
  0.3000000E+00  0.0000000E+00  0.1000000E+00  0.2870177E+01  0.2770177E+01  0.1000000E+01  0.1000000E+01
  0.4000000E+00  0.0000000E+00  0.1000000E+00  0.2945558E+01  0.2845558E+01  0.1000000E+01  0.1000000E+01
  0.5000000E+00  0.0000000E+00  0.1000000E+00  0.3001595E+01  0.2901595E+01  0.1000000E+01  0.1000000E+01
  0.6000000E+00  0.0000000E+00  0.1000000E+00  0.3042961E+01  0.2942961E+01  0.1000000E+01  0.1000000E+01
  0.7000000E+00  0.0000000E+00  0.1000000E+00  0.3072654E+01  0.2972654E+01  0.1000000E+01  0.1000000E+01
  0.8000000E+00  0.0000000E+00  0.1000000E+00  0.3092627E+01  0.2992627E+01  0.1000000E+01  0.1000000E+01
  0.9000000E+00  0.0000000E+00  0.1000000E+00  0.3104135E+01  0.3004135E+01  0.1000000E+01  0.1000000E+01
  0.1000000E+01  0.0000000E+00  0.1000000E+00  0.3107893E+01  0.3007893E+01  0.1000000E+01  0.1000000E+01
  0.0000000E+00  0.0000000E+00  0.2000000E+00  0.2729899E+01  0.2529899E+01  0.1000000E+01  0.1000000E+01
  0.1000000E+00  0.0000000E+00  0.2000000E+00  0.2775328E+01  0.2575328E+01  0.1000000E+01  0.1000000E+01
  0.2000000E+00  0.0000000E+00  0.2000000E+00  0.2847771E+01  0.2647771E+01  0.1000000E+01  0.1000000E+01
  0.3000000E+00  0.0000000E+00  0.2000000E+00  0.2917880E+01  0.2717880E+01  0.1000000E+01  0.1000000E+01
  0.4000000E+00  0.0000000E+00  0.2000000E+00  0.2977197E+01  0.2777197E+01  0.1000000E+01  0.1000000E+01
  0.5000000E+00  0.0000000E+00  0.2000000E+00  0.3024575E+01  0.2824575E+01  0.1000000E+01  0.1000000E+01
  0.6000000E+00  0.0000000E+00  0.2000000E+00  0.3060903E+01  0.2860903E+01  0.1000000E+01  0.1000000E+01
  0.7000000E+00  0.0000000E+00  0.2000000E+00  0.3087470E+01  0.2887470E+01  0.1000000E+01  0.1000000E+01
  0.8000000E+00  0.0000000E+00  0.2000000E+00  0.3105483E+01  0.2905483E+01  0.1000000E+01  0.1000000E+01
  0.9000000E+00  0.0000000E+00  0.2000000E+00  0.3115890E+01  0.2915890E+01  0.1000000E+01  0.1000000E+01
  0.1000000E+01  0.0000000E+00  0.2000000E+00  0.3119291E+01  0.2919291E+01  0.1000000E+01  0.1000000E+01
  0.0000000E+00  0.0000000E+00  0.3000000E+00  0.2868687E+01  0.2568687E+01  0.1000000E+01  0.1000000E+01
  0.1000000E+00  0.0000000E+00  0.3000000E+00  0.2888087E+01  0.2588087E+01  0.1000000E+01  0.1000000E+01
  0.2000000E+00  0.0000000E+00  0.3000000E+00  0.2929255E+01  0.2629255E+01  0.1000000E+01  0.1000000E+01
  0.3000000E+00  0.0000000E+00  0.3000000E+00  0.2976376E+01  0.2676376E+01  0.1000000E+01  0.1000000E+01
  0.4000000E+00  0.0000000E+00  0.3000000E+00  0.3020774E+01  0.2720774E+01  0.1000000E+01  0.1000000E+01
  0.5000000E+00  0.0000000E+00  0.3000000E+00  0.3058605E+01  0.2758605E+01  0.1000000E+01  0.1000000E+01
  0.6000000E+00  0.0000000E+00  0.3000000E+00  0.3088606E+01  0.2788606E+01  0.1000000E+01  0.1000000E+01
  0.7000000E+00  0.0000000E+00  0.3000000E+00  0.3110840E+01  0.2810840E+01  0.1000000E+01  0.1000000E+01
  0.8000000E+00  0.0000000E+00  0.3000000E+00  0.3125946E+01  0.2825946E+01  0.1000000E+01  0.1000000E+01
  0.9000000E+00  0.0000000E+00  0.3000000E+00  0.3134652E+01  0.2834652E+01  0.1000000E+01  0.1000000E+01
  0.1000000E+01  0.0000000E+00  0.3000000E+00  0.3137491E+01  0.2837491E+01  0.1000000E+01  0.1000000E+01
  0.0000000E+00  0.0000000E+00  0.4000000E+00  0.2968674E+01  0.2568674E+01  0.1000000E+01  0.1000000E+01
  0.1000000E+00  0.0000000E+00  0.4000000E+00  0.2979080E+01  0.2579080E+01  0.1000000E+01  0.1000000E+01
  0.2000000E+00  0.0000000E+00  0.4000000E+00  0.3004784E+01  0.2604784E+01  0.1000000E+01  0.1000000E+01
  0.3000000E+00  0.0000000E+00  0.4000000E+00  0.3037596E+01  0.2637596E+01  0.1000000E+01  0.1000000E+01
  0.4000000E+00  0.0000000E+00  0.4000000E+00  0.3070916E+01  0.2670916E+01  0.1000000E+01  0.1000000E+01
  0.5000000E+00  0.0000000E+00  0.4000000E+00  0.3100467E+01  0.2700467E+01  0.1000000E+01  0.1000000E+01
  0.6000000E+00  0.0000000E+00  0.4000000E+00  0.3124077E+01  0.2724077E+01  0.1000000E+01  0.1000000E+01
  0.7000000E+00  0.0000000E+00  0.4000000E+00  0.3141338E+01  0.2741338E+01  0.1000000E+01  0.1000000E+01
  0.8000000E+00  0.0000000E+00  0.4000000E+00  0.3152807E+01  0.2752807E+01  0.1000000E+01  0.1000000E+01
  0.9000000E+00  0.0000000E+00  0.4000000E+00  0.3159282E+01  0.2759282E+01  0.1000000E+01  0.1000000E+01
  0.1000000E+01  0.0000000E+00  0.4000000E+00  0.3161368E+01  0.2761368E+01  0.1000000E+01  0.1000000E+01
  0.0000000E+00  0.0000000E+00  0.5000000E+00  0.3047849E+01  0.2547849E+01  0.1000000E+01  0.1000000E+01
  0.1000000E+00  0.0000000E+00  0.5000000E+00  0.3054774E+01  0.2554774E+01  0.1000000E+01  0.1000000E+01
  0.2000000E+00  0.0000000E+00  0.5000000E+00  0.3073206E+01  0.2573206E+01  0.1000000E+01  0.1000000E+01
  0.3000000E+00  0.0000000E+00  0.5000000E+00  0.3098308E+01  0.2598308E+01  0.1000000E+01  0.1000000E+01
  0.4000000E+00  0.0000000E+00  0.5000000E+00  0.3124829E+01  0.2624829E+01  0.1000000E+01  0.1000000E+01
  0.5000000E+00  0.0000000E+00  0.5000000E+00  0.3148268E+01  0.2648268E+01  0.1000000E+01  0.1000000E+01
  0.6000000E+00  0.0000000E+00  0.5000000E+00  0.3165898E+01  0.2665898E+01  0.1000000E+01  0.1000000E+01
  0.7000000E+00  0.0000000E+00  0.5000000E+00  0.3177627E+01  0.2677627E+01  0.1000000E+01  0.1000000E+01
  0.8000000E+00  0.0000000E+00  0.5000000E+00  0.3184661E+01  0.2684661E+01  0.1000000E+01  0.1000000E+01
  0.9000000E+00  0.0000000E+00  0.5000000E+00  0.3188302E+01  0.2688302E+01  0.1000000E+01  0.1000000E+01
  0.1000000E+01  0.0000000E+00  0.5000000E+00  0.3189417E+01  0.2689417E+01  0.1000000E+01  0.1000000E+01
  0.0000000E+00  0.0000000E+00  0.6000000E+00  0.3113172E+01  0.2513172E+01  0.1000000E+01  0.1000000E+01
  0.1000000E+00  0.0000000E+00  0.6000000E+00  0.3118962E+01  0.2518962E+01  0.1000000E+01  0.1000000E+01
  0.2000000E+00  0.0000000E+00  0.6000000E+00  0.3134959E+01  0.2534959E+01  0.1000000E+01  0.1000000E+01
  0.3000000E+00  0.0000000E+00  0.6000000E+00  0.3157600E+01  0.2557600E+01  0.1000000E+01  0.1000000E+01
  0.4000000E+00  0.0000000E+00  0.6000000E+00  0.3181822E+01  0.2581822E+01  0.1000000E+01  0.1000000E+01
  0.5000000E+00  0.0000000E+00  0.6000000E+00  0.3201880E+01  0.2601880E+01  0.1000000E+01  0.1000000E+01
  0.6000000E+00  0.0000000E+00  0.6000000E+00  0.3213618E+01  0.2613618E+01  0.1000000E+01  0.1000000E+01
  0.7000000E+00  0.0000000E+00  0.6000000E+00  0.3218611E+01  0.2618611E+01  0.1000000E+01  0.1000000E+01
  0.8000000E+00  0.0000000E+00  0.6000000E+00  0.3219910E+01  0.2619910E+01  0.1000000E+01  0.1000000E+01
  0.9000000E+00  0.0000000E+00  0.6000000E+00  0.3219847E+01  0.2619847E+01  0.1000000E+01  0.1000000E+01
  0.1000000E+01  0.0000000E+00  0.6000000E+00  0.3219696E+01  0.2619696E+01  0.1000000E+01  0.1000000E+01
  0.0000000E+00  0.0000000E+00  0.7000000E+00  0.3166917E+01  0.2466917E+01  0.1000000E+01  0.1000000E+01
  0.1000000E+00  0.0000000E+00  0.7000000E+00  0.3172942E+01  0.2472942E+01  0.1000000E+01  0.1000000E+01
  0.2000000E+00  0.0000000E+00  0.7000000E+00  0.3190067E+01  0.2490067E+01  0.1000000E+01  0.1000000E+01
  0.3000000E+00  0.0000000E+00  0.7000000E+00  0.3215311E+01  0.2515311E+01  0.1000000E+01  0.1000000E+01
  0.4000000E+00  0.0000000E+00  0.7000000E+00  0.3242980E+01  0.2542980E+01  0.1000000E+01  0.1000000E+01
  0.5000000E+00  0.0000000E+00  0.7000000E+00  0.3263812E+01  0.2563812E+01  0.1000000E+01  0.1000000E+01
  0.6000000E+00  0.0000000E+00  0.7000000E+00  0.3268083E+01  0.2568083E+01  0.1000000E+01  0.1000000E+01
  0.7000000E+00  0.0000000E+00  0.7000000E+00  0.3263291E+01  0.2563291E+01  0.1000000E+01  0.1000000E+01
  0.8000000E+00  0.0000000E+00  0.7000000E+00  0.3256520E+01  0.2556520E+01  0.1000000E+01  0.1000000E+01
  0.9000000E+00  0.0000000E+00  0.7000000E+00  0.3251480E+01  0.2551480E+01  0.1000000E+01  0.1000000E+01
  0.1000000E+01  0.0000000E+00  0.7000000E+00  0.3249674E+01  0.2549674E+01  0.1000000E+01  0.1000000E+01
  0.0000000E+00  0.0000000E+00  0.8000000E+00  0.3208612E+01  0.2408612E+01  0.1000000E+01  0.1000000E+01
  0.1000000E+00  0.0000000E+00  0.8000000E+00  0.3215822E+01  0.2415822E+01  0.1000000E+01  0.1000000E+01
  0.2000000E+00  0.0000000E+00  0.8000000E+00  0.3237056E+01  0.2437056E+01  0.1000000E+01  0.1000000E+01
  0.3000000E+00  0.0000000E+00  0.8000000E+00  0.3270598E+01  0.2470598E+01  0.1000000E+01  0.1000000E+01
  0.4000000E+00  0.0000000E+00  0.8000000E+00  0.3310974E+01  0.2510974E+01  0.1000000E+01  0.1000000E+01
  0.5000000E+00  0.0000000E+00  0.8000000E+00  0.3342306E+01  0.2542306E+01  0.1000000E+01  0.1000000E+01
  0.6000000E+00  0.0000000E+00  0.8000000E+00  0.3331610E+01  0.2531610E+01  0.1000000E+01  0.1000000E+01
  0.7000000E+00  0.0000000E+00  0.8000000E+00  0.3309950E+01  0.2509950E+01  0.1000000E+01  0.1000000E+01
  0.8000000E+00  0.0000000E+00  0.8000000E+00  0.3291397E+01  0.2491397E+01  0.1000000E+01  0.1000000E+01
  0.9000000E+00  0.0000000E+00  0.8000000E+00  0.3279881E+01  0.2479881E+01  0.1000000E+01  0.1000000E+01
  0.1000000E+01  0.0000000E+00  0.8000000E+00  0.3276040E+01  0.2476040E+01  0.1000000E+01  0.1000000E+01
  0.0000000E+00  0.0000000E+00  0.9000000E+00  0.3235888E+01  0.2335888E+01  0.1000000E+01  0.1000000E+01
  0.1000000E+00  0.0000000E+00  0.9000000E+00  0.3244679E+01  0.2344679E+01  0.1000000E+01  0.1000000E+01
  0.2000000E+00  0.0000000E+00  0.9000000E+00  0.3271735E+01  0.2371735E+01  0.1000000E+01  0.1000000E+01
  0.3000000E+00  0.0000000E+00  0.9000000E+00  0.3319052E+01  0.2419052E+01  0.1000000E+01  0.1000000E+01
  0.4000000E+00  0.0000000E+00  0.9000000E+00  0.3388013E+01  0.2488013E+01  0.1000000E+01  0.1000000E+01
  0.5000000E+00  0.0000000E+00  0.9000000E+00  0.3462829E+01  0.2562829E+01  0.1000000E+01  0.1000000E+01
  0.6000000E+00  0.0000000E+00  0.9000000E+00  0.3406099E+01  0.2506099E+01  0.1000000E+01  0.1000000E+01
  0.7000000E+00  0.0000000E+00  0.9000000E+00  0.3353503E+01  0.2453503E+01  0.1000000E+01  0.1000000E+01
  0.8000000E+00  0.0000000E+00  0.9000000E+00  0.3319237E+01  0.2419237E+01  0.1000000E+01  0.1000000E+01
  0.9000000E+00  0.0000000E+00  0.9000000E+00  0.3300605E+01  0.2400605E+01  0.1000000E+01  0.1000000E+01
  0.1000000E+01  0.0000000E+00  0.9000000E+00  0.3294725E+01  0.2394725E+01  0.1000000E+01  0.1000000E+01
  0.0000000E+00  0.0000000E+00  0.1000000E+01  0.3245580E+01  0.2245580E+01  0.1000000E+01  0.1000000E+01
  0.1000000E+00  0.0000000E+00  0.1000000E+01  0.3255272E+01  0.2255272E+01  0.1000000E+01  0.1000000E+01
  0.2000000E+00  0.0000000E+00  0.1000000E+01  0.3286151E+01  0.2286151E+01  0.1000000E+01  0.1000000E+01
  0.3000000E+00  0.0000000E+00  0.1000000E+01  0.3345863E+01  0.2345863E+01  0.1000000E+01  0.1000000E+01
  0.4000000E+00  0.0000000E+00  0.1000000E+01  0.3459196E+01  0.2459196E+01  0.1000000E+01  0.1000000E+01
  0.5000000E+00  0.0000000E+00  0.1000000E+01  0.3714896E+01  0.2714896E+01  0.1000000E+01  0.1000000E+01
  0.6000000E+00  0.0000000E+00  0.1000000E+01  0.3476455E+01  0.2476455E+01  0.1000000E+01  0.1000000E+01
  0.7000000E+00  0.0000000E+00  0.1000000E+01  0.3378727E+01  0.2378727E+01  0.1000000E+01  0.1000000E+01
  0.8000000E+00  0.0000000E+00  0.1000000E+01  0.3331444E+01  0.2331444E+01  0.1000000E+01  0.1000000E+01
  0.9000000E+00  0.0000000E+00  0.1000000E+01  0.3308576E+01  0.2308576E+01  0.1000000E+01  0.1000000E+01
  0.1000000E+01  0.0000000E+00  0.1000000E+01  0.3301651E+01  0.2301651E+01  0.1000000E+01  0.1000000E+01
