title = "dataset drain1"
variables = "x", "y", "z", "h_w", "p_w", "s_w", "theta_a", "s_a", "theta_g"
zone t = "Flow variables, solution time =  1.000E+02 days        " i =  121, j =    1, k =    1,  f=point
  0.0000000E+00  0.0000000E+00  0.0000000E+00  0.0000000E+00  0.0000000E+00  0.1000000E+01  0.3300000E+00  0.0000000E+00  0.0000000E+00
  0.0000000E+00  0.0000000E+00  0.5000000E-01  0.4840298E-03 -0.4951597E-01  0.9938452E+00  0.3279689E+00  0.6154771E-02  0.2031075E-02
  0.0000000E+00  0.0000000E+00  0.1000000E+00  0.1145006E-02 -0.9885499E-01  0.9829457E+00  0.3243721E+00  0.1705435E-01  0.5627934E-02
  0.0000000E+00  0.0000000E+00  0.1500000E+00  0.2005785E-02 -0.1479942E+00  0.9695351E+00  0.3199466E+00  0.3046495E-01  0.1005343E-01
  0.0000000E+00  0.0000000E+00  0.2000000E+00  0.3098338E-02 -0.1969017E+00  0.9546076E+00  0.3150205E+00  0.4539242E-01  0.1497950E-01
  0.0000000E+00  0.0000000E+00  0.2500000E+00  0.4460528E-02 -0.2455395E+00  0.9388078E+00  0.3098066E+00  0.6119220E-01  0.2019343E-01
  0.0000000E+00  0.0000000E+00  0.3000000E+00  0.6135094E-02 -0.2938649E+00  0.9225893E+00  0.3044545E+00  0.7741073E-01  0.2554554E-01
  0.0000000E+00  0.0000000E+00  0.3500000E+00  0.8169092E-02 -0.3418309E+00  0.9062791E+00  0.2990721E+00  0.9372085E-01  0.3092788E-01
  0.0000000E+00  0.0000000E+00  0.4000000E+00  0.1061341E-01 -0.3893866E+00  0.8901142E+00  0.2937377E+00  0.1098858E+00  0.3626232E-01
  0.0000000E+00  0.0000000E+00  0.4500000E+00  0.1352229E-01 -0.4364777E+00  0.8742644E+00  0.2885072E+00  0.1257356E+00  0.4149275E-01
  0.0000000E+00  0.0000000E+00  0.5000000E+00  0.1695272E-01 -0.4830473E+00  0.8588497E+00  0.2834204E+00  0.1411503E+00  0.4657960E-01
  0.0000000E+00  0.0000000E+00  0.5500000E+00  0.2096382E-01 -0.5290362E+00  0.8439525E+00  0.2785043E+00  0.1560475E+00  0.5149568E-01
  0.0000000E+00  0.0000000E+00  0.6000000E+00  0.2561612E-01 -0.5743839E+00  0.8296269E+00  0.2737769E+00  0.1703731E+00  0.5622312E-01
  0.0000000E+00  0.0000000E+00  0.6500000E+00  0.3097073E-01 -0.6190293E+00  0.8159058E+00  0.2692489E+00  0.1840942E+00  0.6075108E-01
  0.0000000E+00  0.0000000E+00  0.7000000E+00  0.3708853E-01 -0.6629115E+00  0.8028063E+00  0.2649261E+00  0.1971937E+00  0.6507394E-01
  0.0000000E+00  0.0000000E+00  0.7500000E+00  0.4402924E-01 -0.7059708E+00  0.7903334E+00  0.2608100E+00  0.2096666E+00  0.6918998E-01
  0.0000000E+00  0.0000000E+00  0.8000000E+00  0.5185053E-01 -0.7481495E+00  0.7784837E+00  0.2568996E+00  0.2215163E+00  0.7310038E-01
  0.0000000E+00  0.0000000E+00  0.8500000E+00  0.6060712E-01 -0.7893929E+00  0.7672471E+00  0.2531915E+00  0.2327529E+00  0.7680846E-01
  0.0000000E+00  0.0000000E+00  0.9000000E+00  0.7034995E-01 -0.8296501E+00  0.7566089E+00  0.2496809E+00  0.2433911E+00  0.8031907E-01
  0.0000000E+00  0.0000000E+00  0.9500000E+00  0.8112531E-01 -0.8688747E+00  0.7465509E+00  0.2463618E+00  0.2534491E+00  0.8363819E-01
  0.0000000E+00  0.0000000E+00  0.1000000E+01  0.9297421E-01 -0.9070258E+00  0.7370528E+00  0.2432274E+00  0.2629472E+00  0.8677258E-01
  0.0000000E+00  0.0000000E+00  0.1050000E+01  0.1059317E+00 -0.9440683E+00  0.7280923E+00  0.2402705E+00  0.2719077E+00  0.8972954E-01
  0.0000000E+00  0.0000000E+00  0.1100000E+01  0.1200265E+00 -0.9799735E+00  0.7196463E+00  0.2374833E+00  0.2803537E+00  0.9251671E-01
  0.0000000E+00  0.0000000E+00  0.1150000E+01  0.1352805E+00 -0.1014720E+01  0.7116911E+00  0.2348581E+00  0.2883089E+00  0.9514193E-01
  0.0000000E+00  0.0000000E+00  0.1200000E+01  0.1517085E+00 -0.1048291E+01  0.7042026E+00  0.2323869E+00  0.2957974E+00  0.9761313E-01
  0.0000000E+00  0.0000000E+00  0.1250000E+01  0.1693187E+00 -0.1080681E+01  0.6971568E+00  0.2300618E+00  0.3028432E+00  0.9993824E-01
  0.0000000E+00  0.0000000E+00  0.1300000E+01  0.1881119E+00 -0.1111888E+01  0.6905299E+00  0.2278749E+00  0.3094701E+00  0.1021251E+00
  0.0000000E+00  0.0000000E+00  0.1350000E+01  0.2080823E+00 -0.1141918E+01  0.6842984E+00  0.2258185E+00  0.3157016E+00  0.1041815E+00
  0.0000000E+00  0.0000000E+00  0.1400000E+01  0.2292178E+00 -0.1170782E+01  0.6784394E+00  0.2238850E+00  0.3215606E+00  0.1061150E+00
  0.0000000E+00  0.0000000E+00  0.1450000E+01  0.2515002E+00 -0.1198500E+01  0.6729305E+00  0.2220671E+00  0.3270695E+00  0.1079329E+00
  0.0000000E+00  0.0000000E+00  0.1500000E+01  0.2749057E+00 -0.1225094E+01  0.6677500E+00  0.2203575E+00  0.3322500E+00  0.1096425E+00
  0.0000000E+00  0.0000000E+00  0.1550000E+01  0.2994057E+00 -0.1250594E+01  0.6628770E+00  0.2187494E+00  0.3371230E+00  0.1112506E+00
  0.0000000E+00  0.0000000E+00  0.1600000E+01  0.3249670E+00 -0.1275033E+01  0.6582913E+00  0.2172361E+00  0.3417087E+00  0.1127639E+00
  0.0000000E+00  0.0000000E+00  0.1650000E+01  0.3515529E+00 -0.1298447E+01  0.6539736E+00  0.2158113E+00  0.3460264E+00  0.1141887E+00
  0.0000000E+00  0.0000000E+00  0.1700000E+01  0.3791235E+00 -0.1320876E+01  0.6499053E+00  0.2144688E+00  0.3500947E+00  0.1155312E+00
  0.0000000E+00  0.0000000E+00  0.1750000E+01  0.4076364E+00 -0.1342364E+01  0.6460689E+00  0.2132027E+00  0.3539311E+00  0.1167973E+00
  0.0000000E+00  0.0000000E+00  0.1800000E+01  0.4370471E+00 -0.1362953E+01  0.6424476E+00  0.2120077E+00  0.3575524E+00  0.1179923E+00
  0.0000000E+00  0.0000000E+00  0.1850000E+01  0.4673099E+00 -0.1382690E+01  0.6390255E+00  0.2108784E+00  0.3609745E+00  0.1191216E+00
  0.0000000E+00  0.0000000E+00  0.1900000E+01  0.4983784E+00 -0.1401622E+01  0.6357875E+00  0.2098099E+00  0.3642125E+00  0.1201901E+00
  0.0000000E+00  0.0000000E+00  0.1950000E+01  0.5302054E+00 -0.1419795E+01  0.6327195E+00  0.2087974E+00  0.3672805E+00  0.1212026E+00
  0.0000000E+00  0.0000000E+00  0.2000000E+01  0.5627440E+00 -0.1437256E+01  0.6298080E+00  0.2078367E+00  0.3701920E+00  0.1221633E+00
  0.0000000E+00  0.0000000E+00  0.2050000E+01  0.5959476E+00 -0.1454052E+01  0.6270406E+00  0.2069234E+00  0.3729594E+00  0.1230766E+00
  0.0000000E+00  0.0000000E+00  0.2100000E+01  0.6297704E+00 -0.1470230E+01  0.6244053E+00  0.2060537E+00  0.3755947E+00  0.1239463E+00
  0.0000000E+00  0.0000000E+00  0.2150000E+01  0.6641674E+00 -0.1485833E+01  0.6218912E+00  0.2052241E+00  0.3781088E+00  0.1247759E+00
  0.0000000E+00  0.0000000E+00  0.2200000E+01  0.6990949E+00 -0.1500905E+01  0.6194879E+00  0.2044310E+00  0.3805121E+00  0.1255690E+00
  0.0000000E+00  0.0000000E+00  0.2250000E+01  0.7345103E+00 -0.1515490E+01  0.6171858E+00  0.2036713E+00  0.3828142E+00  0.1263287E+00
  0.0000000E+00  0.0000000E+00  0.2300000E+01  0.7703728E+00 -0.1529627E+01  0.6149759E+00  0.2029420E+00  0.3850241E+00  0.1270580E+00
  0.0000000E+00  0.0000000E+00  0.2350000E+01  0.8066431E+00 -0.1543357E+01  0.6128498E+00  0.2022404E+00  0.3871502E+00  0.1277596E+00
  0.0000000E+00  0.0000000E+00  0.2400000E+01  0.8432832E+00 -0.1556717E+01  0.6107997E+00  0.2015639E+00  0.3892003E+00  0.1284361E+00
  0.0000000E+00  0.0000000E+00  0.2450000E+01  0.8802571E+00 -0.1569743E+01  0.6088185E+00  0.2009101E+00  0.3911815E+00  0.1290899E+00
  0.0000000E+00  0.0000000E+00  0.2500000E+01  0.9175303E+00 -0.1582470E+01  0.6068993E+00  0.2002768E+00  0.3931007E+00  0.1297232E+00
  0.0000000E+00  0.0000000E+00  0.2550000E+01  0.9550702E+00 -0.1594930E+01  0.6050359E+00  0.1996619E+00  0.3949641E+00  0.1303381E+00
  0.0000000E+00  0.0000000E+00  0.2600000E+01  0.9928454E+00 -0.1607155E+01  0.6032227E+00  0.1990635E+00  0.3967773E+00  0.1309365E+00
  0.0000000E+00  0.0000000E+00  0.2650000E+01  0.1030826E+01 -0.1619174E+01  0.6014541E+00  0.1984799E+00  0.3985459E+00  0.1315201E+00
  0.0000000E+00  0.0000000E+00  0.2700000E+01  0.1068985E+01 -0.1631015E+01  0.5997253E+00  0.1979094E+00  0.4002747E+00  0.1320906E+00
  0.0000000E+00  0.0000000E+00  0.2750000E+01  0.1107295E+01 -0.1642705E+01  0.5980317E+00  0.1973505E+00  0.4019683E+00  0.1326495E+00
  0.0000000E+00  0.0000000E+00  0.2800000E+01  0.1145731E+01 -0.1654269E+01  0.5963690E+00  0.1968018E+00  0.4036310E+00  0.1331982E+00
  0.0000000E+00  0.0000000E+00  0.2850000E+01  0.1184270E+01 -0.1665730E+01  0.5947332E+00  0.1962619E+00  0.4052668E+00  0.1337381E+00
  0.0000000E+00  0.0000000E+00  0.2900000E+01  0.1222888E+01 -0.1677112E+01  0.5931207E+00  0.1957298E+00  0.4068793E+00  0.1342702E+00
  0.0000000E+00  0.0000000E+00  0.2950000E+01  0.1261564E+01 -0.1688436E+01  0.5915282E+00  0.1952043E+00  0.4084718E+00  0.1347957E+00
  0.0000000E+00  0.0000000E+00  0.3000000E+01  0.1300277E+01 -0.1699723E+01  0.5899525E+00  0.1946843E+00  0.4100475E+00  0.1353157E+00
  0.0000000E+00  0.0000000E+00  0.3050000E+01  0.1339009E+01 -0.1710991E+01  0.5883906E+00  0.1941689E+00  0.4116094E+00  0.1358311E+00
  0.0000000E+00  0.0000000E+00  0.3100000E+01  0.1377742E+01 -0.1722258E+01  0.5868399E+00  0.1936572E+00  0.4131601E+00  0.1363428E+00
  0.0000000E+00  0.0000000E+00  0.3150000E+01  0.1416456E+01 -0.1733544E+01  0.5852979E+00  0.1931483E+00  0.4147021E+00  0.1368517E+00
  0.0000000E+00  0.0000000E+00  0.3200000E+01  0.1455136E+01 -0.1744864E+01  0.5837623E+00  0.1926416E+00  0.4162377E+00  0.1373584E+00
  0.0000000E+00  0.0000000E+00  0.3250000E+01  0.1493766E+01 -0.1756234E+01  0.5822308E+00  0.1921362E+00  0.4177692E+00  0.1378638E+00
  0.0000000E+00  0.0000000E+00  0.3300000E+01  0.1532330E+01 -0.1767670E+01  0.5807014E+00  0.1916315E+00  0.4192986E+00  0.1383685E+00
  0.0000000E+00  0.0000000E+00  0.3350000E+01  0.1570813E+01 -0.1779187E+01  0.5791723E+00  0.1911268E+00  0.4208277E+00  0.1388732E+00
  0.0000000E+00  0.0000000E+00  0.3400000E+01  0.1609201E+01 -0.1790799E+01  0.5776415E+00  0.1906217E+00  0.4223585E+00  0.1393783E+00
  0.0000000E+00  0.0000000E+00  0.3450000E+01  0.1647480E+01 -0.1802520E+01  0.5761076E+00  0.1901155E+00  0.4238924E+00  0.1398845E+00
  0.0000000E+00  0.0000000E+00  0.3500000E+01  0.1685636E+01 -0.1814364E+01  0.5745688E+00  0.1896077E+00  0.4254312E+00  0.1403923E+00
  0.0000000E+00  0.0000000E+00  0.3550000E+01  0.1723655E+01 -0.1826345E+01  0.5730237E+00  0.1890978E+00  0.4269763E+00  0.1409022E+00
  0.0000000E+00  0.0000000E+00  0.3600000E+01  0.1761525E+01 -0.1838475E+01  0.5714710E+00  0.1885854E+00  0.4285290E+00  0.1414146E+00
  0.0000000E+00  0.0000000E+00  0.3650000E+01  0.1799233E+01 -0.1850767E+01  0.5699091E+00  0.1880700E+00  0.4300909E+00  0.1419300E+00
  0.0000000E+00  0.0000000E+00  0.3700000E+01  0.1836766E+01 -0.1863234E+01  0.5683369E+00  0.1875512E+00  0.4316631E+00  0.1424488E+00
  0.0000000E+00  0.0000000E+00  0.3750000E+01  0.1874111E+01 -0.1875889E+01  0.5667532E+00  0.1870285E+00  0.4332468E+00  0.1429715E+00
  0.0000000E+00  0.0000000E+00  0.3800000E+01  0.1911255E+01 -0.1888745E+01  0.5651567E+00  0.1865017E+00  0.4348433E+00  0.1434983E+00
  0.0000000E+00  0.0000000E+00  0.3850000E+01  0.1948186E+01 -0.1901814E+01  0.5635463E+00  0.1859703E+00  0.4364537E+00  0.1440297E+00
  0.0000000E+00  0.0000000E+00  0.3900000E+01  0.1984890E+01 -0.1915110E+01  0.5619209E+00  0.1854339E+00  0.4380791E+00  0.1445661E+00
  0.0000000E+00  0.0000000E+00  0.3950000E+01  0.2021355E+01 -0.1928645E+01  0.5602795E+00  0.1848922E+00  0.4397205E+00  0.1451078E+00
  0.0000000E+00  0.0000000E+00  0.4000000E+01  0.2057568E+01 -0.1942432E+01  0.5586210E+00  0.1843449E+00  0.4413790E+00  0.1456551E+00
  0.0000000E+00  0.0000000E+00  0.4050000E+01  0.2093514E+01 -0.1956486E+01  0.5569443E+00  0.1837916E+00  0.4430557E+00  0.1462084E+00
  0.0000000E+00  0.0000000E+00  0.4100000E+01  0.2129180E+01 -0.1970820E+01  0.5552485E+00  0.1832320E+00  0.4447515E+00  0.1467680E+00
  0.0000000E+00  0.0000000E+00  0.4150000E+01  0.2164552E+01 -0.1985448E+01  0.5535325E+00  0.1826657E+00  0.4464675E+00  0.1473343E+00
  0.0000000E+00  0.0000000E+00  0.4200000E+01  0.2199615E+01 -0.2000385E+01  0.5517954E+00  0.1820925E+00  0.4482046E+00  0.1479075E+00
  0.0000000E+00  0.0000000E+00  0.4250000E+01  0.2234354E+01 -0.2015646E+01  0.5500360E+00  0.1815119E+00  0.4499640E+00  0.1484881E+00
  0.0000000E+00  0.0000000E+00  0.4300000E+01  0.2268753E+01 -0.2031247E+01  0.5482535E+00  0.1809237E+00  0.4517465E+00  0.1490763E+00
  0.0000000E+00  0.0000000E+00  0.4350000E+01  0.2302796E+01 -0.2047204E+01  0.5464468E+00  0.1803274E+00  0.4535532E+00  0.1496726E+00
  0.0000000E+00  0.0000000E+00  0.4400000E+01  0.2336466E+01 -0.2063534E+01  0.5446149E+00  0.1797229E+00  0.4553851E+00  0.1502771E+00
  0.0000000E+00  0.0000000E+00  0.4450000E+01  0.2369746E+01 -0.2080254E+01  0.5427567E+00  0.1791097E+00  0.4572433E+00  0.1508903E+00
  0.0000000E+00  0.0000000E+00  0.4500000E+01  0.2402615E+01 -0.2097385E+01  0.5408712E+00  0.1784875E+00  0.4591288E+00  0.1515125E+00
  0.0000000E+00  0.0000000E+00  0.4550000E+01  0.2435056E+01 -0.2114944E+01  0.5389573E+00  0.1778559E+00  0.4610427E+00  0.1521441E+00
  0.0000000E+00  0.0000000E+00  0.4600000E+01  0.2467048E+01 -0.2132952E+01  0.5370139E+00  0.1772146E+00  0.4629861E+00  0.1527854E+00
  0.0000000E+00  0.0000000E+00  0.4650000E+01  0.2498568E+01 -0.2151432E+01  0.5350398E+00  0.1765631E+00  0.4649602E+00  0.1534369E+00
  0.0000000E+00  0.0000000E+00  0.4700000E+01  0.2529594E+01 -0.2170406E+01  0.5330339E+00  0.1759012E+00  0.4669661E+00  0.1540988E+00
  0.0000000E+00  0.0000000E+00  0.4750000E+01  0.2560101E+01 -0.2189899E+01  0.5309949E+00  0.1752283E+00  0.4690051E+00  0.1547717E+00
  0.0000000E+00  0.0000000E+00  0.4800000E+01  0.2590065E+01 -0.2209935E+01  0.5289216E+00  0.1745441E+00  0.4710784E+00  0.1554559E+00
  0.0000000E+00  0.0000000E+00  0.4850000E+01  0.2619458E+01 -0.2230542E+01  0.5268127E+00  0.1738482E+00  0.4731873E+00  0.1561518E+00
  0.0000000E+00  0.0000000E+00  0.4900000E+01  0.2648250E+01 -0.2251750E+01  0.5246668E+00  0.1731400E+00  0.4753332E+00  0.1568600E+00
  0.0000000E+00  0.0000000E+00  0.4950000E+01  0.2676412E+01 -0.2273588E+01  0.5224825E+00  0.1724192E+00  0.4775175E+00  0.1575808E+00
  0.0000000E+00  0.0000000E+00  0.5000000E+01  0.2703910E+01 -0.2296090E+01  0.5202582E+00  0.1716852E+00  0.4797418E+00  0.1583148E+00
  0.0000000E+00  0.0000000E+00  0.5050000E+01  0.2730708E+01 -0.2319292E+01  0.5179925E+00  0.1709375E+00  0.4820075E+00  0.1590625E+00
  0.0000000E+00  0.0000000E+00  0.5100000E+01  0.2756771E+01 -0.2343229E+01  0.5156838E+00  0.1701756E+00  0.4843162E+00  0.1598244E+00
  0.0000000E+00  0.0000000E+00  0.5150000E+01  0.2782056E+01 -0.2367944E+01  0.5133302E+00  0.1693990E+00  0.4866698E+00  0.1606010E+00
  0.0000000E+00  0.0000000E+00  0.5200000E+01  0.2806520E+01 -0.2393480E+01  0.5109300E+00  0.1686069E+00  0.4890700E+00  0.1613931E+00
  0.0000000E+00  0.0000000E+00  0.5250000E+01  0.2830118E+01 -0.2419882E+01  0.5084813E+00  0.1677988E+00  0.4915187E+00  0.1622012E+00
  0.0000000E+00  0.0000000E+00  0.5300000E+01  0.2852799E+01 -0.2447201E+01  0.5059821E+00  0.1669741E+00  0.4940179E+00  0.1630259E+00
  0.0000000E+00  0.0000000E+00  0.5350000E+01  0.2874508E+01 -0.2475492E+01  0.5034303E+00  0.1661320E+00  0.4965697E+00  0.1638680E+00
  0.0000000E+00  0.0000000E+00  0.5400000E+01  0.2895187E+01 -0.2504813E+01  0.5008235E+00  0.1652718E+00  0.4991765E+00  0.1647282E+00
  0.0000000E+00  0.0000000E+00  0.5450000E+01  0.2914772E+01 -0.2535228E+01  0.4981595E+00  0.1643926E+00  0.5018405E+00  0.1656074E+00
  0.0000000E+00  0.0000000E+00  0.5500000E+01  0.2933195E+01 -0.2566805E+01  0.4954358E+00  0.1634938E+00  0.5045642E+00  0.1665062E+00
  0.0000000E+00  0.0000000E+00  0.5550000E+01  0.2950380E+01 -0.2599620E+01  0.4926495E+00  0.1625743E+00  0.5073505E+00  0.1674257E+00
  0.0000000E+00  0.0000000E+00  0.5600000E+01  0.2966245E+01 -0.2633755E+01  0.4897979E+00  0.1616333E+00  0.5102021E+00  0.1683667E+00
  0.0000000E+00  0.0000000E+00  0.5650000E+01  0.2980702E+01 -0.2669298E+01  0.4868779E+00  0.1606697E+00  0.5131221E+00  0.1693303E+00
  0.0000000E+00  0.0000000E+00  0.5700000E+01  0.2993653E+01 -0.2706347E+01  0.4838863E+00  0.1596825E+00  0.5161137E+00  0.1703175E+00
  0.0000000E+00  0.0000000E+00  0.5750000E+01  0.3004990E+01 -0.2745010E+01  0.4808195E+00  0.1586704E+00  0.5191805E+00  0.1713296E+00
  0.0000000E+00  0.0000000E+00  0.5800000E+01  0.3014596E+01 -0.2785404E+01  0.4776738E+00  0.1576324E+00  0.5223262E+00  0.1723676E+00
  0.0000000E+00  0.0000000E+00  0.5850000E+01  0.3022340E+01 -0.2827660E+01  0.4744452E+00  0.1565669E+00  0.5255548E+00  0.1734331E+00
  0.0000000E+00  0.0000000E+00  0.5900000E+01  0.3028080E+01 -0.2871920E+01  0.4711294E+00  0.1554727E+00  0.5288706E+00  0.1745273E+00
  0.0000000E+00  0.0000000E+00  0.5950000E+01  0.3031656E+01 -0.2918344E+01  0.4677216E+00  0.1543481E+00  0.5322784E+00  0.1756519E+00
  0.0000000E+00  0.0000000E+00  0.6000000E+01  0.3032892E+01 -0.2967108E+01  0.4642169E+00  0.1531916E+00  0.5357831E+00  0.1768084E+00
