title = "dataset drain1"
variables = "x", "y", "z", "h_w", "p_w", "s_w", "theta_a", "s_a", "theta_g"
zone t = "Flow variables, solution time =  4.000E+00 days        " i =  121, j =    1, k =    1,  f=point
  0.0000000E+00  0.0000000E+00  0.0000000E+00  0.0000000E+00  0.0000000E+00  0.1000000E+01  0.3300000E+00  0.0000000E+00  0.0000000E+00
  0.0000000E+00  0.0000000E+00  0.5000000E-01  0.1295605E-01 -0.3704395E-01  0.9960071E+00  0.3286823E+00  0.3992943E-02  0.1317671E-02
  0.0000000E+00  0.0000000E+00  0.1000000E+00  0.2935227E-01 -0.7064773E-01  0.9895782E+00  0.3265608E+00  0.1042179E-01  0.3439189E-02
  0.0000000E+00  0.0000000E+00  0.1500000E+00  0.4900761E-01 -0.1009924E+00  0.9824066E+00  0.3241942E+00  0.1759339E-01  0.5805818E-02
  0.0000000E+00  0.0000000E+00  0.2000000E+00  0.7180363E-01 -0.1281964E+00  0.9751729E+00  0.3218071E+00  0.2482706E-01  0.8192931E-02
  0.0000000E+00  0.0000000E+00  0.2500000E+00  0.9760023E-01 -0.1523998E+00  0.9682441E+00  0.3195206E+00  0.3175586E-01  0.1047943E-01
  0.0000000E+00  0.0000000E+00  0.3000000E+00  0.1262203E+00 -0.1737797E+00  0.9618170E+00  0.3173996E+00  0.3818299E-01  0.1260039E-01
  0.0000000E+00  0.0000000E+00  0.3500000E+00  0.1574535E+00 -0.1925465E+00  0.9559834E+00  0.3154745E+00  0.4401663E-01  0.1452549E-01
  0.0000000E+00  0.0000000E+00  0.4000000E+00  0.1910660E+00 -0.2089340E+00  0.9507686E+00  0.3137536E+00  0.4923144E-01  0.1624638E-01
  0.0000000E+00  0.0000000E+00  0.4500000E+00  0.2268130E+00 -0.2231870E+00  0.9461566E+00  0.3122317E+00  0.5384342E-01  0.1776833E-01
  0.0000000E+00  0.0000000E+00  0.5000000E+00  0.2644489E+00 -0.2355511E+00  0.9421073E+00  0.3108954E+00  0.5789275E-01  0.1910461E-01
  0.0000000E+00  0.0000000E+00  0.5500000E+00  0.3037366E+00 -0.2462634E+00  0.9385678E+00  0.3097274E+00  0.6143222E-01  0.2027263E-01
  0.0000000E+00  0.0000000E+00  0.6000000E+00  0.3444537E+00 -0.2555463E+00  0.9354804E+00  0.3087085E+00  0.6451956E-01  0.2129146E-01
  0.0000000E+00  0.0000000E+00  0.6500000E+00  0.3863964E+00 -0.2636036E+00  0.9327875E+00  0.3078199E+00  0.6721248E-01  0.2218012E-01
  0.0000000E+00  0.0000000E+00  0.7000000E+00  0.4293816E+00 -0.2706184E+00  0.9304343E+00  0.3070433E+00  0.6956575E-01  0.2295670E-01
  0.0000000E+00  0.0000000E+00  0.7500000E+00  0.4732474E+00 -0.2767526E+00  0.9283705E+00  0.3063623E+00  0.7162952E-01  0.2363774E-01
  0.0000000E+00  0.0000000E+00  0.8000000E+00  0.5178523E+00 -0.2821477E+00  0.9265513E+00  0.3057619E+00  0.7344869E-01  0.2423807E-01
  0.0000000E+00  0.0000000E+00  0.8500000E+00  0.5630741E+00 -0.2869259E+00  0.9249373E+00  0.3052293E+00  0.7506266E-01  0.2477068E-01
  0.0000000E+00  0.0000000E+00  0.9000000E+00  0.6088083E+00 -0.2911917E+00  0.9234944E+00  0.3047531E+00  0.7650562E-01  0.2524685E-01
  0.0000000E+00  0.0000000E+00  0.9500000E+00  0.6549657E+00 -0.2950343E+00  0.9221931E+00  0.3043237E+00  0.7780689E-01  0.2567627E-01
  0.0000000E+00  0.0000000E+00  0.1000000E+01  0.7014711E+00 -0.2985289E+00  0.9210086E+00  0.3039328E+00  0.7899142E-01  0.2606717E-01
  0.0000000E+00  0.0000000E+00  0.1050000E+01  0.7482610E+00 -0.3017390E+00  0.9199197E+00  0.3035735E+00  0.8008035E-01  0.2642652E-01
  0.0000000E+00  0.0000000E+00  0.1100000E+01  0.7952824E+00 -0.3047176E+00  0.9189085E+00  0.3032398E+00  0.8109145E-01  0.2676018E-01
  0.0000000E+00  0.0000000E+00  0.1150000E+01  0.8424905E+00 -0.3075095E+00  0.9179603E+00  0.3029269E+00  0.8203965E-01  0.2707309E-01
  0.0000000E+00  0.0000000E+00  0.1200000E+01  0.8898484E+00 -0.3101516E+00  0.9170626E+00  0.3026306E+00  0.8293744E-01  0.2736936E-01
  0.0000000E+00  0.0000000E+00  0.1250000E+01  0.9373249E+00 -0.3126751E+00  0.9162048E+00  0.3023476E+00  0.8379525E-01  0.2765243E-01
  0.0000000E+00  0.0000000E+00  0.1300000E+01  0.9848944E+00 -0.3151056E+00  0.9153782E+00  0.3020748E+00  0.8462178E-01  0.2792519E-01
  0.0000000E+00  0.0000000E+00  0.1350000E+01  0.1032535E+01 -0.3174648E+00  0.9145757E+00  0.3018100E+00  0.8542428E-01  0.2819001E-01
  0.0000000E+00  0.0000000E+00  0.1400000E+01  0.1080229E+01 -0.3197706E+00  0.9137912E+00  0.3015511E+00  0.8620880E-01  0.2844890E-01
  0.0000000E+00  0.0000000E+00  0.1450000E+01  0.1127962E+01 -0.3220377E+00  0.9130196E+00  0.3012965E+00  0.8698039E-01  0.2870353E-01
  0.0000000E+00  0.0000000E+00  0.1500000E+01  0.1175721E+01 -0.3242789E+00  0.9122567E+00  0.3010447E+00  0.8774326E-01  0.2895527E-01
  0.0000000E+00  0.0000000E+00  0.1550000E+01  0.1223496E+01 -0.3265043E+00  0.9114991E+00  0.3007947E+00  0.8850093E-01  0.2920531E-01
  0.0000000E+00  0.0000000E+00  0.1600000E+01  0.1271277E+01 -0.3287229E+00  0.9107436E+00  0.3005454E+00  0.8925637E-01  0.2945460E-01
  0.0000000E+00  0.0000000E+00  0.1650000E+01  0.1319058E+01 -0.3309420E+00  0.9099879E+00  0.3002960E+00  0.9001206E-01  0.2970398E-01
  0.0000000E+00  0.0000000E+00  0.1700000E+01  0.1366832E+01 -0.3331678E+00  0.9092299E+00  0.3000459E+00  0.9077011E-01  0.2995414E-01
  0.0000000E+00  0.0000000E+00  0.1750000E+01  0.1414594E+01 -0.3354056E+00  0.9084677E+00  0.2997943E+00  0.9153232E-01  0.3020566E-01
  0.0000000E+00  0.0000000E+00  0.1800000E+01  0.1462340E+01 -0.3376601E+00  0.9076998E+00  0.2995409E+00  0.9230020E-01  0.3045907E-01
  0.0000000E+00  0.0000000E+00  0.1850000E+01  0.1510065E+01 -0.3399350E+00  0.9069249E+00  0.2992852E+00  0.9307508E-01  0.3071478E-01
  0.0000000E+00  0.0000000E+00  0.1900000E+01  0.1557766E+01 -0.3422339E+00  0.9061419E+00  0.2990268E+00  0.9385812E-01  0.3097318E-01
  0.0000000E+00  0.0000000E+00  0.1950000E+01  0.1605440E+01 -0.3445598E+00  0.9053497E+00  0.2987654E+00  0.9465031E-01  0.3123460E-01
  0.0000000E+00  0.0000000E+00  0.2000000E+01  0.1653085E+01 -0.3469153E+00  0.9045474E+00  0.2985007E+00  0.9545255E-01  0.3149934E-01
  0.0000000E+00  0.0000000E+00  0.2050000E+01  0.1700697E+01 -0.3493030E+00  0.9037343E+00  0.2982323E+00  0.9626565E-01  0.3176767E-01
  0.0000000E+00  0.0000000E+00  0.2100000E+01  0.1748275E+01 -0.3517249E+00  0.9029097E+00  0.2979602E+00  0.9709034E-01  0.3203981E-01
  0.0000000E+00  0.0000000E+00  0.2150000E+01  0.1795817E+01 -0.3541832E+00  0.9020727E+00  0.2976840E+00  0.9792730E-01  0.3231601E-01
  0.0000000E+00  0.0000000E+00  0.2200000E+01  0.1843320E+01 -0.3566799E+00  0.9012228E+00  0.2974035E+00  0.9877715E-01  0.3259646E-01
  0.0000000E+00  0.0000000E+00  0.2250000E+01  0.1890783E+01 -0.3592168E+00  0.9003595E+00  0.2971186E+00  0.9964050E-01  0.3288136E-01
  0.0000000E+00  0.0000000E+00  0.2300000E+01  0.1938204E+01 -0.3617956E+00  0.8994821E+00  0.2968291E+00  0.1005179E+00  0.3317091E-01
  0.0000000E+00  0.0000000E+00  0.2350000E+01  0.1985582E+01 -0.3644181E+00  0.8985900E+00  0.2965347E+00  0.1014100E+00  0.3346529E-01
  0.0000000E+00  0.0000000E+00  0.2400000E+01  0.2032914E+01 -0.3670860E+00  0.8976828E+00  0.2962353E+00  0.1023172E+00  0.3376467E-01
  0.0000000E+00  0.0000000E+00  0.2450000E+01  0.2080199E+01 -0.3698011E+00  0.8967599E+00  0.2959308E+00  0.1032401E+00  0.3406924E-01
  0.0000000E+00  0.0000000E+00  0.2500000E+01  0.2127435E+01 -0.3725651E+00  0.8958207E+00  0.2956208E+00  0.1041793E+00  0.3437917E-01
  0.0000000E+00  0.0000000E+00  0.2550000E+01  0.2174620E+01 -0.3753797E+00  0.8948647E+00  0.2953054E+00  0.1051353E+00  0.3469465E-01
  0.0000000E+00  0.0000000E+00  0.2600000E+01  0.2221753E+01 -0.3782467E+00  0.8938914E+00  0.2949842E+00  0.1061086E+00  0.3501585E-01
  0.0000000E+00  0.0000000E+00  0.2650000E+01  0.2268832E+01 -0.3811679E+00  0.8929001E+00  0.2946570E+00  0.1070999E+00  0.3534296E-01
  0.0000000E+00  0.0000000E+00  0.2700000E+01  0.2315855E+01 -0.3841452E+00  0.8918904E+00  0.2943238E+00  0.1081096E+00  0.3567618E-01
  0.0000000E+00  0.0000000E+00  0.2750000E+01  0.2362820E+01 -0.3871805E+00  0.8908616E+00  0.2939843E+00  0.1091384E+00  0.3601568E-01
  0.0000000E+00  0.0000000E+00  0.2800000E+01  0.2409724E+01 -0.3902758E+00  0.8898131E+00  0.2936383E+00  0.1101869E+00  0.3636169E-01
  0.0000000E+00  0.0000000E+00  0.2850000E+01  0.2456567E+01 -0.3934332E+00  0.8887443E+00  0.2932856E+00  0.1112557E+00  0.3671439E-01
  0.0000000E+00  0.0000000E+00  0.2900000E+01  0.2503345E+01 -0.3966549E+00  0.8876545E+00  0.2929260E+00  0.1123455E+00  0.3707402E-01
  0.0000000E+00  0.0000000E+00  0.2950000E+01  0.2550057E+01 -0.3999431E+00  0.8865431E+00  0.2925592E+00  0.1134569E+00  0.3744078E-01
  0.0000000E+00  0.0000000E+00  0.3000000E+01  0.2596700E+01 -0.4033001E+00  0.8854094E+00  0.2921851E+00  0.1145906E+00  0.3781491E-01
  0.0000000E+00  0.0000000E+00  0.3050000E+01  0.2643272E+01 -0.4067285E+00  0.8842526E+00  0.2918033E+00  0.1157474E+00  0.3819665E-01
  0.0000000E+00  0.0000000E+00  0.3100000E+01  0.2689769E+01 -0.4102308E+00  0.8830719E+00  0.2914137E+00  0.1169281E+00  0.3858626E-01
  0.0000000E+00  0.0000000E+00  0.3150000E+01  0.2736190E+01 -0.4138097E+00  0.8818667E+00  0.2910160E+00  0.1181333E+00  0.3898398E-01
  0.0000000E+00  0.0000000E+00  0.3200000E+01  0.2782532E+01 -0.4174680E+00  0.8806360E+00  0.2906099E+00  0.1193640E+00  0.3939010E-01
  0.0000000E+00  0.0000000E+00  0.3250000E+01  0.2828791E+01 -0.4212088E+00  0.8793791E+00  0.2901951E+00  0.1206209E+00  0.3980491E-01
  0.0000000E+00  0.0000000E+00  0.3300000E+01  0.2874965E+01 -0.4250351E+00  0.8780949E+00  0.2897713E+00  0.1219051E+00  0.4022869E-01
  0.0000000E+00  0.0000000E+00  0.3350000E+01  0.2921050E+01 -0.4289504E+00  0.8767825E+00  0.2893382E+00  0.1232175E+00  0.4066176E-01
  0.0000000E+00  0.0000000E+00  0.3400000E+01  0.2967042E+01 -0.4329579E+00  0.8754410E+00  0.2888955E+00  0.1245590E+00  0.4110446E-01
  0.0000000E+00  0.0000000E+00  0.3450000E+01  0.3012938E+01 -0.4370616E+00  0.8740693E+00  0.2884429E+00  0.1259307E+00  0.4155711E-01
  0.0000000E+00  0.0000000E+00  0.3500000E+01  0.3058735E+01 -0.4412651E+00  0.8726664E+00  0.2879799E+00  0.1273336E+00  0.4202010E-01
  0.0000000E+00  0.0000000E+00  0.3550000E+01  0.3104427E+01 -0.4455727E+00  0.8712309E+00  0.2875062E+00  0.1287691E+00  0.4249379E-01
  0.0000000E+00  0.0000000E+00  0.3600000E+01  0.3150011E+01 -0.4499886E+00  0.8697619E+00  0.2870214E+00  0.1302381E+00  0.4297858E-01
  0.0000000E+00  0.0000000E+00  0.3650000E+01  0.3195483E+01 -0.4545175E+00  0.8682579E+00  0.2865251E+00  0.1317421E+00  0.4347490E-01
  0.0000000E+00  0.0000000E+00  0.3700000E+01  0.3240836E+01 -0.4591642E+00  0.8667176E+00  0.2860168E+00  0.1332824E+00  0.4398318E-01
  0.0000000E+00  0.0000000E+00  0.3750000E+01  0.3286066E+01 -0.4639340E+00  0.8651397E+00  0.2854961E+00  0.1348603E+00  0.4450390E-01
  0.0000000E+00  0.0000000E+00  0.3800000E+01  0.3331168E+01 -0.4688323E+00  0.8635226E+00  0.2849625E+00  0.1364774E+00  0.4503754E-01
  0.0000000E+00  0.0000000E+00  0.3850000E+01  0.3376135E+01 -0.4738649E+00  0.8618648E+00  0.2844154E+00  0.1381352E+00  0.4558462E-01
  0.0000000E+00  0.0000000E+00  0.3900000E+01  0.3420962E+01 -0.4790381E+00  0.8601646E+00  0.2838543E+00  0.1398354E+00  0.4614570E-01
  0.0000000E+00  0.0000000E+00  0.3950000E+01  0.3465641E+01 -0.4843586E+00  0.8584202E+00  0.2832787E+00  0.1415798E+00  0.4672135E-01
  0.0000000E+00  0.0000000E+00  0.4000000E+01  0.3510167E+01 -0.4898334E+00  0.8566297E+00  0.2826878E+00  0.1433703E+00  0.4731219E-01
  0.0000000E+00  0.0000000E+00  0.4050000E+01  0.3554530E+01 -0.4954701E+00  0.8547913E+00  0.2820811E+00  0.1452087E+00  0.4791887E-01
  0.0000000E+00  0.0000000E+00  0.4100000E+01  0.3598723E+01 -0.5012768E+00  0.8529028E+00  0.2814579E+00  0.1470972E+00  0.4854209E-01
  0.0000000E+00  0.0000000E+00  0.4150000E+01  0.3642738E+01 -0.5072622E+00  0.8509619E+00  0.2808174E+00  0.1490381E+00  0.4918257E-01
  0.0000000E+00  0.0000000E+00  0.4200000E+01  0.3686564E+01 -0.5134356E+00  0.8489663E+00  0.2801589E+00  0.1510337E+00  0.4984111E-01
  0.0000000E+00  0.0000000E+00  0.4250000E+01  0.3730193E+01 -0.5198070E+00  0.8469136E+00  0.2794815E+00  0.1530864E+00  0.5051852E-01
  0.0000000E+00  0.0000000E+00  0.4300000E+01  0.3773613E+01 -0.5263871E+00  0.8448009E+00  0.2787843E+00  0.1551991E+00  0.5121571E-01
  0.0000000E+00  0.0000000E+00  0.4350000E+01  0.3816812E+01 -0.5331876E+00  0.8426254E+00  0.2780664E+00  0.1573746E+00  0.5193361E-01
  0.0000000E+00  0.0000000E+00  0.4400000E+01  0.3859779E+01 -0.5402210E+00  0.8403841E+00  0.2773268E+00  0.1596159E+00  0.5267323E-01
  0.0000000E+00  0.0000000E+00  0.4450000E+01  0.3902499E+01 -0.5475009E+00  0.8380737E+00  0.2765643E+00  0.1619263E+00  0.5343567E-01
  0.0000000E+00  0.0000000E+00  0.4500000E+01  0.3944958E+01 -0.5550418E+00  0.8356907E+00  0.2757779E+00  0.1643093E+00  0.5422207E-01
  0.0000000E+00  0.0000000E+00  0.4550000E+01  0.3987140E+01 -0.5628597E+00  0.8332313E+00  0.2749663E+00  0.1667687E+00  0.5503368E-01
  0.0000000E+00  0.0000000E+00  0.4600000E+01  0.4029028E+01 -0.5709720E+00  0.8306914E+00  0.2741282E+00  0.1693086E+00  0.5587183E-01
  0.0000000E+00  0.0000000E+00  0.4650000E+01  0.4070603E+01 -0.5793973E+00  0.8280668E+00  0.2732620E+00  0.1719332E+00  0.5673797E-01
  0.0000000E+00  0.0000000E+00  0.4700000E+01  0.4111844E+01 -0.5881565E+00  0.8253526E+00  0.2723664E+00  0.1746474E+00  0.5763364E-01
  0.0000000E+00  0.0000000E+00  0.4750000E+01  0.4152728E+01 -0.5972718E+00  0.8225439E+00  0.2714395E+00  0.1774561E+00  0.5856052E-01
  0.0000000E+00  0.0000000E+00  0.4800000E+01  0.4193232E+01 -0.6067680E+00  0.8196351E+00  0.2704796E+00  0.1803649E+00  0.5952041E-01
  0.0000000E+00  0.0000000E+00  0.4850000E+01  0.4233328E+01 -0.6166723E+00  0.8166204E+00  0.2694847E+00  0.1833796E+00  0.6051528E-01
  0.0000000E+00  0.0000000E+00  0.4900000E+01  0.4272985E+01 -0.6270146E+00  0.8134932E+00  0.2684527E+00  0.1865068E+00  0.6154725E-01
  0.0000000E+00  0.0000000E+00  0.4950000E+01  0.4312172E+01 -0.6378278E+00  0.8102465E+00  0.2673814E+00  0.1897535E+00  0.6261864E-01
  0.0000000E+00  0.0000000E+00  0.5000000E+01  0.4350851E+01 -0.6491485E+00  0.8068728E+00  0.2662680E+00  0.1931272E+00  0.6373199E-01
  0.0000000E+00  0.0000000E+00  0.5050000E+01  0.4388982E+01 -0.6610176E+00  0.8033635E+00  0.2651100E+00  0.1966365E+00  0.6489003E-01
  0.0000000E+00  0.0000000E+00  0.5100000E+01  0.4426520E+01 -0.6734804E+00  0.7997097E+00  0.2639042E+00  0.2002903E+00  0.6609581E-01
  0.0000000E+00  0.0000000E+00  0.5150000E+01  0.4463412E+01 -0.6865876E+00  0.7959011E+00  0.2626474E+00  0.2040989E+00  0.6735264E-01
  0.0000000E+00  0.0000000E+00  0.5200000E+01  0.4499604E+01 -0.7003964E+00  0.7919267E+00  0.2613358E+00  0.2080733E+00  0.6866418E-01
  0.0000000E+00  0.0000000E+00  0.5250000E+01  0.4535029E+01 -0.7149709E+00  0.7877743E+00  0.2599655E+00  0.2122257E+00  0.7003447E-01
  0.0000000E+00  0.0000000E+00  0.5300000E+01  0.4569616E+01 -0.7303841E+00  0.7834304E+00  0.2585320E+00  0.2165696E+00  0.7146798E-01
  0.0000000E+00  0.0000000E+00  0.5350000E+01  0.4603282E+01 -0.7467185E+00  0.7788798E+00  0.2570303E+00  0.2211202E+00  0.7296968E-01
  0.0000000E+00  0.0000000E+00  0.5400000E+01  0.4635931E+01 -0.7640687E+00  0.7741057E+00  0.2554549E+00  0.2258943E+00  0.7454512E-01
  0.0000000E+00  0.0000000E+00  0.5450000E+01  0.4667457E+01 -0.7825433E+00  0.7690894E+00  0.2537995E+00  0.2309106E+00  0.7620050E-01
  0.0000000E+00  0.0000000E+00  0.5500000E+01  0.4697733E+01 -0.8022674E+00  0.7638097E+00  0.2520572E+00  0.2361903E+00  0.7794278E-01
  0.0000000E+00  0.0000000E+00  0.5550000E+01  0.4726613E+01 -0.8233865E+00  0.7582429E+00  0.2502202E+00  0.2417571E+00  0.7977985E-01
  0.0000000E+00  0.0000000E+00  0.5600000E+01  0.4753930E+01 -0.8460705E+00  0.7523618E+00  0.2482794E+00  0.2476382E+00  0.8172060E-01
  0.0000000E+00  0.0000000E+00  0.5650000E+01  0.4779481E+01 -0.8705192E+00  0.7461358E+00  0.2462248E+00  0.2538642E+00  0.8377519E-01
  0.0000000E+00  0.0000000E+00  0.5700000E+01  0.4803030E+01 -0.8969696E+00  0.7395296E+00  0.2440448E+00  0.2604704E+00  0.8595524E-01
  0.0000000E+00  0.0000000E+00  0.5750000E+01  0.4824295E+01 -0.9257048E+00  0.7325026E+00  0.2417259E+00  0.2674974E+00  0.8827414E-01
  0.0000000E+00  0.0000000E+00  0.5800000E+01  0.4842933E+01 -0.9570665E+00  0.7250079E+00  0.2392526E+00  0.2749921E+00  0.9074740E-01
  0.0000000E+00  0.0000000E+00  0.5850000E+01  0.4858529E+01 -0.9914707E+00  0.7169906E+00  0.2366069E+00  0.2830094E+00  0.9339311E-01
  0.0000000E+00  0.0000000E+00  0.5900000E+01  0.4870570E+01 -0.1029430E+01  0.7083863E+00  0.2337675E+00  0.2916137E+00  0.9623253E-01
  0.0000000E+00  0.0000000E+00  0.5950000E+01  0.4878417E+01 -0.1071583E+01  0.6991186E+00  0.2307091E+00  0.3008814E+00  0.9929087E-01
  0.0000000E+00  0.0000000E+00  0.6000000E+01  0.4881262E+01 -0.1118738E+01  0.6890960E+00  0.2274017E+00  0.3109040E+00  0.1025983E+00
