title = "dataset drain1"
variables = "x", "y", "z", "h_w", "p_w", "s_w", "theta_a", "s_a", "theta_g"
zone t = "Flow variables, solution time =  1.000E+00 days        " i =  121, j =    1, k =    1,  f=point
  0.0000000E+00  0.0000000E+00  0.0000000E+00  0.0000000E+00  0.0000000E+00  0.1000000E+01  0.3300000E+00  0.0000000E+00  0.0000000E+00
  0.0000000E+00  0.0000000E+00  0.5000000E-01  0.2618644E-01 -0.2381356E-01  0.9979395E+00  0.3293200E+00  0.2060524E-02  0.6799728E-03
  0.0000000E+00  0.0000000E+00  0.1000000E+00  0.5690775E-01 -0.4309225E-01  0.9949958E+00  0.3283486E+00  0.5004164E-02  0.1651374E-02
  0.0000000E+00  0.0000000E+00  0.1500000E+00  0.9122382E-01 -0.5877618E-01  0.9920606E+00  0.3273800E+00  0.7939392E-02  0.2619999E-02
  0.0000000E+00  0.0000000E+00  0.2000000E+00  0.1284749E+00 -0.7152514E-01  0.9893868E+00  0.3264976E+00  0.1061323E-01  0.3502365E-02
  0.0000000E+00  0.0000000E+00  0.2500000E+00  0.1681257E+00 -0.8187425E-01  0.9870525E+00  0.3257273E+00  0.1294747E-01  0.4272666E-02
  0.0000000E+00  0.0000000E+00  0.3000000E+00  0.2097281E+00 -0.9027187E-01  0.9850619E+00  0.3250704E+00  0.1493812E-01  0.4929579E-02
  0.0000000E+00  0.0000000E+00  0.3500000E+00  0.2529061E+00 -0.9709389E-01  0.9833863E+00  0.3245175E+00  0.1661374E-01  0.5482533E-02
  0.0000000E+00  0.0000000E+00  0.4000000E+00  0.2973472E+00 -0.1026528E+00  0.9819847E+00  0.3240549E+00  0.1801532E-01  0.5945056E-02
  0.0000000E+00  0.0000000E+00  0.4500000E+00  0.3427945E+00 -0.1072055E+00  0.9808138E+00  0.3236686E+00  0.1918617E-01  0.6331436E-02
  0.0000000E+00  0.0000000E+00  0.5000000E+00  0.3890386E+00 -0.1109614E+00  0.9798330E+00  0.3233449E+00  0.2016696E-01  0.6655097E-02
  0.0000000E+00  0.0000000E+00  0.5500000E+00  0.4359108E+00 -0.1140892E+00  0.9790063E+00  0.3230721E+00  0.2099366E-01  0.6927908E-02
  0.0000000E+00  0.0000000E+00  0.6000000E+00  0.4832756E+00 -0.1167244E+00  0.9783031E+00  0.3228400E+00  0.2169694E-01  0.7159989E-02
  0.0000000E+00  0.0000000E+00  0.6500000E+00  0.5310252E+00 -0.1189748E+00  0.9776977E+00  0.3226402E+00  0.2230231E-01  0.7359763E-02
  0.0000000E+00  0.0000000E+00  0.7000000E+00  0.5790740E+00 -0.1209260E+00  0.9771693E+00  0.3224659E+00  0.2283069E-01  0.7534128E-02
  0.0000000E+00  0.0000000E+00  0.7500000E+00  0.6273544E+00 -0.1226456E+00  0.9767010E+00  0.3223113E+00  0.2329900E-01  0.7688670E-02
  0.0000000E+00  0.0000000E+00  0.8000000E+00  0.6758130E+00 -0.1241870E+00  0.9762792E+00  0.3221721E+00  0.2372082E-01  0.7827872E-02
  0.0000000E+00  0.0000000E+00  0.8500000E+00  0.7244081E+00 -0.1255919E+00  0.9758930E+00  0.3220447E+00  0.2410701E-01  0.7955314E-02
  0.0000000E+00  0.0000000E+00  0.9000000E+00  0.7731065E+00 -0.1268935E+00  0.9755338E+00  0.3219262E+00  0.2446619E-01  0.8073843E-02
  0.0000000E+00  0.0000000E+00  0.9500000E+00  0.8218824E+00 -0.1281176E+00  0.9751948E+00  0.3218143E+00  0.2480520E-01  0.8185716E-02
  0.0000000E+00  0.0000000E+00  0.1000000E+01  0.8707156E+00 -0.1292844E+00  0.9748705E+00  0.3217073E+00  0.2512946E-01  0.8292721E-02
  0.0000000E+00  0.0000000E+00  0.1050000E+01  0.9195900E+00 -0.1304100E+00  0.9745568E+00  0.3216037E+00  0.2544324E-01  0.8396271E-02
  0.0000000E+00  0.0000000E+00  0.1100000E+01  0.9684931E+00 -0.1315069E+00  0.9742500E+00  0.3215025E+00  0.2574996E-01  0.8497487E-02
  0.0000000E+00  0.0000000E+00  0.1150000E+01  0.1017415E+01 -0.1325849E+00  0.9739477E+00  0.3214027E+00  0.2605230E-01  0.8597258E-02
  0.0000000E+00  0.0000000E+00  0.1200000E+01  0.1066348E+01 -0.1336519E+00  0.9736476E+00  0.3213037E+00  0.2635239E-01  0.8696289E-02
  0.0000000E+00  0.0000000E+00  0.1250000E+01  0.1115286E+01 -0.1347140E+00  0.9733480E+00  0.3212049E+00  0.2665196E-01  0.8795146E-02
  0.0000000E+00  0.0000000E+00  0.1300000E+01  0.1164224E+01 -0.1357762E+00  0.9730476E+00  0.3211057E+00  0.2695236E-01  0.8894280E-02
  0.0000000E+00  0.0000000E+00  0.1350000E+01  0.1213158E+01 -0.1368424E+00  0.9727453E+00  0.3210059E+00  0.2725472E-01  0.8994058E-02
  0.0000000E+00  0.0000000E+00  0.1400000E+01  0.1262084E+01 -0.1379156E+00  0.9724401E+00  0.3209052E+00  0.2755993E-01  0.9094777E-02
  0.0000000E+00  0.0000000E+00  0.1450000E+01  0.1311001E+01 -0.1389987E+00  0.9721313E+00  0.3208033E+00  0.2786874E-01  0.9196685E-02
  0.0000000E+00  0.0000000E+00  0.1500000E+01  0.1359906E+01 -0.1400935E+00  0.9718182E+00  0.3207000E+00  0.2818177E-01  0.9299985E-02
  0.0000000E+00  0.0000000E+00  0.1550000E+01  0.1408798E+01 -0.1412020E+00  0.9715004E+00  0.3205951E+00  0.2849956E-01  0.9404854E-02
  0.0000000E+00  0.0000000E+00  0.1600000E+01  0.1457674E+01 -0.1423257E+00  0.9711775E+00  0.3204886E+00  0.2882255E-01  0.9511440E-02
  0.0000000E+00  0.0000000E+00  0.1650000E+01  0.1506534E+01 -0.1434658E+00  0.9708489E+00  0.3203801E+00  0.2915114E-01  0.9619878E-02
  0.0000000E+00  0.0000000E+00  0.1700000E+01  0.1555377E+01 -0.1446234E+00  0.9705143E+00  0.3202697E+00  0.2948571E-01  0.9730284E-02
  0.0000000E+00  0.0000000E+00  0.1750000E+01  0.1604200E+01 -0.1457997E+00  0.9701734E+00  0.3201572E+00  0.2982658E-01  0.9842770E-02
  0.0000000E+00  0.0000000E+00  0.1800000E+01  0.1653004E+01 -0.1469955E+00  0.9698260E+00  0.3200426E+00  0.3017405E-01  0.9957436E-02
  0.0000000E+00  0.0000000E+00  0.1850000E+01  0.1701788E+01 -0.1482118E+00  0.9694716E+00  0.3199256E+00  0.3052842E-01  0.1007438E-01
  0.0000000E+00  0.0000000E+00  0.1900000E+01  0.1750551E+01 -0.1494494E+00  0.9691100E+00  0.3198063E+00  0.3088998E-01  0.1019369E-01
  0.0000000E+00  0.0000000E+00  0.1950000E+01  0.1799291E+01 -0.1507091E+00  0.9687410E+00  0.3196845E+00  0.3125900E-01  0.1031547E-01
  0.0000000E+00  0.0000000E+00  0.2000000E+01  0.1848008E+01 -0.1519917E+00  0.9683642E+00  0.3195602E+00  0.3163577E-01  0.1043980E-01
  0.0000000E+00  0.0000000E+00  0.2050000E+01  0.1896702E+01 -0.1532980E+00  0.9679794E+00  0.3194332E+00  0.3202055E-01  0.1056678E-01
  0.0000000E+00  0.0000000E+00  0.2100000E+01  0.1945371E+01 -0.1546288E+00  0.9675864E+00  0.3193035E+00  0.3241365E-01  0.1069650E-01
  0.0000000E+00  0.0000000E+00  0.2150000E+01  0.1994015E+01 -0.1559850E+00  0.9671847E+00  0.3191709E+00  0.3281533E-01  0.1082906E-01
  0.0000000E+00  0.0000000E+00  0.2200000E+01  0.2042633E+01 -0.1573674E+00  0.9667741E+00  0.3190355E+00  0.3322590E-01  0.1096455E-01
  0.0000000E+00  0.0000000E+00  0.2250000E+01  0.2091223E+01 -0.1587767E+00  0.9663543E+00  0.3188969E+00  0.3364567E-01  0.1110307E-01
  0.0000000E+00  0.0000000E+00  0.2300000E+01  0.2139786E+01 -0.1602140E+00  0.9659251E+00  0.3187553E+00  0.3407495E-01  0.1124473E-01
  0.0000000E+00  0.0000000E+00  0.2350000E+01  0.2188320E+01 -0.1616802E+00  0.9654859E+00  0.3186104E+00  0.3451406E-01  0.1138964E-01
  0.0000000E+00  0.0000000E+00  0.2400000E+01  0.2236824E+01 -0.1631761E+00  0.9650367E+00  0.3184621E+00  0.3496335E-01  0.1153790E-01
  0.0000000E+00  0.0000000E+00  0.2450000E+01  0.2285297E+01 -0.1647027E+00  0.9645768E+00  0.3183104E+00  0.3542317E-01  0.1168964E-01
  0.0000000E+00  0.0000000E+00  0.2500000E+01  0.2333739E+01 -0.1662611E+00  0.9641061E+00  0.3181550E+00  0.3589388E-01  0.1184498E-01
  0.0000000E+00  0.0000000E+00  0.2550000E+01  0.2382148E+01 -0.1678524E+00  0.9636241E+00  0.3179960E+00  0.3637588E-01  0.1200404E-01
  0.0000000E+00  0.0000000E+00  0.2600000E+01  0.2430522E+01 -0.1694777E+00  0.9631304E+00  0.3178330E+00  0.3686957E-01  0.1216696E-01
  0.0000000E+00  0.0000000E+00  0.2650000E+01  0.2478862E+01 -0.1711380E+00  0.9626246E+00  0.3176661E+00  0.3737536E-01  0.1233387E-01
  0.0000000E+00  0.0000000E+00  0.2700000E+01  0.2527165E+01 -0.1728348E+00  0.9621063E+00  0.3174951E+00  0.3789370E-01  0.1250492E-01
  0.0000000E+00  0.0000000E+00  0.2750000E+01  0.2575431E+01 -0.1745691E+00  0.9615750E+00  0.3173197E+00  0.3842505E-01  0.1268026E-01
  0.0000000E+00  0.0000000E+00  0.2800000E+01  0.2623658E+01 -0.1763425E+00  0.9610301E+00  0.3171399E+00  0.3896989E-01  0.1286006E-01
  0.0000000E+00  0.0000000E+00  0.2850000E+01  0.2671844E+01 -0.1781562E+00  0.9604713E+00  0.3169555E+00  0.3952873E-01  0.1304448E-01
  0.0000000E+00  0.0000000E+00  0.2900000E+01  0.2719988E+01 -0.1800117E+00  0.9598979E+00  0.3167663E+00  0.4010211E-01  0.1323370E-01
  0.0000000E+00  0.0000000E+00  0.2950000E+01  0.2768089E+01 -0.1819106E+00  0.9593094E+00  0.3165721E+00  0.4069058E-01  0.1342789E-01
  0.0000000E+00  0.0000000E+00  0.3000000E+01  0.2816145E+01 -0.1838546E+00  0.9587053E+00  0.3163727E+00  0.4129474E-01  0.1362726E-01
  0.0000000E+00  0.0000000E+00  0.3050000E+01  0.2864155E+01 -0.1858453E+00  0.9580848E+00  0.3161680E+00  0.4191521E-01  0.1383202E-01
  0.0000000E+00  0.0000000E+00  0.3100000E+01  0.2912115E+01 -0.1878845E+00  0.9574474E+00  0.3159576E+00  0.4255263E-01  0.1404237E-01
  0.0000000E+00  0.0000000E+00  0.3150000E+01  0.2960026E+01 -0.1899742E+00  0.9567923E+00  0.3157415E+00  0.4320771E-01  0.1425854E-01
  0.0000000E+00  0.0000000E+00  0.3200000E+01  0.3007884E+01 -0.1921164E+00  0.9561188E+00  0.3155192E+00  0.4388116E-01  0.1448078E-01
  0.0000000E+00  0.0000000E+00  0.3250000E+01  0.3055687E+01 -0.1943131E+00  0.9554262E+00  0.3152907E+00  0.4457376E-01  0.1470934E-01
  0.0000000E+00  0.0000000E+00  0.3300000E+01  0.3103433E+01 -0.1965666E+00  0.9547137E+00  0.3150555E+00  0.4528631E-01  0.1494448E-01
  0.0000000E+00  0.0000000E+00  0.3350000E+01  0.3151121E+01 -0.1988793E+00  0.9539803E+00  0.3148135E+00  0.4601966E-01  0.1518649E-01
  0.0000000E+00  0.0000000E+00  0.3400000E+01  0.3198746E+01 -0.2012537E+00  0.9532253E+00  0.3145643E+00  0.4677473E-01  0.1543566E-01
  0.0000000E+00  0.0000000E+00  0.3450000E+01  0.3246308E+01 -0.2036924E+00  0.9524475E+00  0.3143077E+00  0.4755248E-01  0.1569232E-01
  0.0000000E+00  0.0000000E+00  0.3500000E+01  0.3293802E+01 -0.2061982E+00  0.9516461E+00  0.3140432E+00  0.4835391E-01  0.1595679E-01
  0.0000000E+00  0.0000000E+00  0.3550000E+01  0.3341226E+01 -0.2087742E+00  0.9508199E+00  0.3137706E+00  0.4918011E-01  0.1622944E-01
  0.0000000E+00  0.0000000E+00  0.3600000E+01  0.3388577E+01 -0.2114235E+00  0.9499678E+00  0.3134894E+00  0.5003223E-01  0.1651063E-01
  0.0000000E+00  0.0000000E+00  0.3650000E+01  0.3435851E+01 -0.2141494E+00  0.9490885E+00  0.3131992E+00  0.5091147E-01  0.1680078E-01
  0.0000000E+00  0.0000000E+00  0.3700000E+01  0.3483044E+01 -0.2169556E+00  0.9481809E+00  0.3128997E+00  0.5181913E-01  0.1710031E-01
  0.0000000E+00  0.0000000E+00  0.3750000E+01  0.3530154E+01 -0.2198459E+00  0.9472434E+00  0.3125903E+00  0.5275658E-01  0.1740967E-01
  0.0000000E+00  0.0000000E+00  0.3800000E+01  0.3577176E+01 -0.2228244E+00  0.9462747E+00  0.3122707E+00  0.5372530E-01  0.1772935E-01
  0.0000000E+00  0.0000000E+00  0.3850000E+01  0.3624105E+01 -0.2258954E+00  0.9452732E+00  0.3119401E+00  0.5472685E-01  0.1805986E-01
  0.0000000E+00  0.0000000E+00  0.3900000E+01  0.3670936E+01 -0.2290637E+00  0.9442371E+00  0.3115982E+00  0.5576289E-01  0.1840175E-01
  0.0000000E+00  0.0000000E+00  0.3950000E+01  0.3717666E+01 -0.2323341E+00  0.9431648E+00  0.3112444E+00  0.5683522E-01  0.1875562E-01
  0.0000000E+00  0.0000000E+00  0.4000000E+01  0.3764288E+01 -0.2357122E+00  0.9420542E+00  0.3108779E+00  0.5794575E-01  0.1912210E-01
  0.0000000E+00  0.0000000E+00  0.4050000E+01  0.3810796E+01 -0.2392035E+00  0.9409035E+00  0.3104981E+00  0.5909653E-01  0.1950185E-01
  0.0000000E+00  0.0000000E+00  0.4100000E+01  0.3857186E+01 -0.2428144E+00  0.9397102E+00  0.3101044E+00  0.6028975E-01  0.1989562E-01
  0.0000000E+00  0.0000000E+00  0.4150000E+01  0.3903448E+01 -0.2465516E+00  0.9384722E+00  0.3096958E+00  0.6152779E-01  0.2030417E-01
  0.0000000E+00  0.0000000E+00  0.4200000E+01  0.3949578E+01 -0.2504221E+00  0.9371868E+00  0.3092717E+00  0.6281318E-01  0.2072835E-01
  0.0000000E+00  0.0000000E+00  0.4250000E+01  0.3995566E+01 -0.2544338E+00  0.9358513E+00  0.3088309E+00  0.6414866E-01  0.2116906E-01
  0.0000000E+00  0.0000000E+00  0.4300000E+01  0.4041405E+01 -0.2585951E+00  0.9344628E+00  0.3083727E+00  0.6553720E-01  0.2162728E-01
  0.0000000E+00  0.0000000E+00  0.4350000E+01  0.4087085E+01 -0.2629153E+00  0.9330180E+00  0.3078959E+00  0.6698199E-01  0.2210406E-01
  0.0000000E+00  0.0000000E+00  0.4400000E+01  0.4132596E+01 -0.2674041E+00  0.9315135E+00  0.3073995E+00  0.6848648E-01  0.2260054E-01
  0.0000000E+00  0.0000000E+00  0.4450000E+01  0.4177928E+01 -0.2720724E+00  0.9299456E+00  0.3068820E+00  0.7005444E-01  0.2311796E-01
  0.0000000E+00  0.0000000E+00  0.4500000E+01  0.4223068E+01 -0.2769320E+00  0.9283101E+00  0.3063423E+00  0.7168993E-01  0.2365768E-01
  0.0000000E+00  0.0000000E+00  0.4550000E+01  0.4268004E+01 -0.2819958E+00  0.9266026E+00  0.3057789E+00  0.7339739E-01  0.2422114E-01
  0.0000000E+00  0.0000000E+00  0.4600000E+01  0.4312722E+01 -0.2872779E+00  0.9248183E+00  0.3051901E+00  0.7518166E-01  0.2480995E-01
  0.0000000E+00  0.0000000E+00  0.4650000E+01  0.4357206E+01 -0.2927939E+00  0.9229520E+00  0.3045742E+00  0.7704802E-01  0.2542585E-01
  0.0000000E+00  0.0000000E+00  0.4700000E+01  0.4401439E+01 -0.2985609E+00  0.9209977E+00  0.3039293E+00  0.7900226E-01  0.2607075E-01
  0.0000000E+00  0.0000000E+00  0.4750000E+01  0.4445402E+01 -0.3045977E+00  0.9189493E+00  0.3032533E+00  0.8105073E-01  0.2674674E-01
  0.0000000E+00  0.0000000E+00  0.4800000E+01  0.4489075E+01 -0.3109253E+00  0.9167996E+00  0.3025439E+00  0.8320040E-01  0.2745613E-01
  0.0000000E+00  0.0000000E+00  0.4850000E+01  0.4532433E+01 -0.3175668E+00  0.9145410E+00  0.3017985E+00  0.8545898E-01  0.2820146E-01
  0.0000000E+00  0.0000000E+00  0.4900000E+01  0.4575452E+01 -0.3245483E+00  0.9121650E+00  0.3010145E+00  0.8783498E-01  0.2898554E-01
  0.0000000E+00  0.0000000E+00  0.4950000E+01  0.4618101E+01 -0.3318985E+00  0.9096622E+00  0.3001885E+00  0.9033782E-01  0.2981148E-01
  0.0000000E+00  0.0000000E+00  0.5000000E+01  0.4660350E+01 -0.3396500E+00  0.9070220E+00  0.2993173E+00  0.9297802E-01  0.3068275E-01
  0.0000000E+00  0.0000000E+00  0.5050000E+01  0.4702161E+01 -0.3478394E+00  0.9042327E+00  0.2983968E+00  0.9576725E-01  0.3160319E-01
  0.0000000E+00  0.0000000E+00  0.5100000E+01  0.4743492E+01 -0.3565079E+00  0.9012814E+00  0.2974229E+00  0.9871862E-01  0.3257714E-01
  0.0000000E+00  0.0000000E+00  0.5150000E+01  0.4784297E+01 -0.3657027E+00  0.8981532E+00  0.2963906E+00  0.1018468E+00  0.3360945E-01
  0.0000000E+00  0.0000000E+00  0.5200000E+01  0.4824523E+01 -0.3754772E+00  0.8948316E+00  0.2952944E+00  0.1051684E+00  0.3470557E-01
  0.0000000E+00  0.0000000E+00  0.5250000E+01  0.4864107E+01 -0.3858930E+00  0.8912979E+00  0.2941283E+00  0.1087021E+00  0.3587171E-01
  0.0000000E+00  0.0000000E+00  0.5300000E+01  0.4902979E+01 -0.3970210E+00  0.8875307E+00  0.2928851E+00  0.1124693E+00  0.3711487E-01
  0.0000000E+00  0.0000000E+00  0.5350000E+01  0.4941057E+01 -0.4089435E+00  0.8835058E+00  0.2915569E+00  0.1164942E+00  0.3844310E-01
  0.0000000E+00  0.0000000E+00  0.5400000E+01  0.4978244E+01 -0.4217564E+00  0.8791952E+00  0.2901344E+00  0.1208048E+00  0.3986559E-01
  0.0000000E+00  0.0000000E+00  0.5450000E+01  0.5014427E+01 -0.4355727E+00  0.8745668E+00  0.2886070E+00  0.1254332E+00  0.4139296E-01
  0.0000000E+00  0.0000000E+00  0.5500000E+01  0.5049474E+01 -0.4505262E+00  0.8695832E+00  0.2869625E+00  0.1304168E+00  0.4303754E-01
  0.0000000E+00  0.0000000E+00  0.5550000E+01  0.5083224E+01 -0.4667764E+00  0.8642009E+00  0.2851863E+00  0.1357991E+00  0.4481370E-01
  0.0000000E+00  0.0000000E+00  0.5600000E+01  0.5115484E+01 -0.4845159E+00  0.8583687E+00  0.2832617E+00  0.1416313E+00  0.4673834E-01
  0.0000000E+00  0.0000000E+00  0.5650000E+01  0.5146021E+01 -0.5039791E+00  0.8520258E+00  0.2811685E+00  0.1479742E+00  0.4883149E-01
  0.0000000E+00  0.0000000E+00  0.5700000E+01  0.5174546E+01 -0.5254544E+00  0.8450999E+00  0.2788830E+00  0.1549001E+00  0.5111703E-01
  0.0000000E+00  0.0000000E+00  0.5750000E+01  0.5200698E+01 -0.5493016E+00  0.8375037E+00  0.2763762E+00  0.1624963E+00  0.5362377E-01
  0.0000000E+00  0.0000000E+00  0.5800000E+01  0.5224024E+01 -0.5759755E+00  0.8291311E+00  0.2736133E+00  0.1708689E+00  0.5638674E-01
  0.0000000E+00  0.0000000E+00  0.5850000E+01  0.5243940E+01 -0.6060604E+00  0.8198513E+00  0.2705509E+00  0.1801487E+00  0.5944908E-01
  0.0000000E+00  0.0000000E+00  0.5900000E+01  0.5259679E+01 -0.6403206E+00  0.8095014E+00  0.2671355E+00  0.1904986E+00  0.6286454E-01
  0.0000000E+00  0.0000000E+00  0.5950000E+01  0.5270223E+01 -0.6797769E+00  0.7978757E+00  0.2632990E+00  0.2021243E+00  0.6670102E-01
  0.0000000E+00  0.0000000E+00  0.6000000E+01  0.5274173E+01 -0.7258266E+00  0.7847098E+00  0.2589542E+00  0.2152902E+00  0.7104578E-01
