title = "dataset drain1"
variables = "x", "y", "z", "h_w", "p_w", "s_w", "theta_a", "s_a", "theta_g"
zone t = "Flow variables, solution time =  2.000E+01 days        " i =  121, j =    1, k =    1,  f=point
  0.0000000E+00  0.0000000E+00  0.0000000E+00  0.0000000E+00  0.0000000E+00  0.1000000E+01  0.3300000E+00  0.0000000E+00  0.0000000E+00
  0.0000000E+00  0.0000000E+00  0.5000000E-01  0.3372777E-02 -0.4662722E-01  0.9943720E+00  0.3281428E+00  0.5628013E-02  0.1857244E-02
  0.0000000E+00  0.0000000E+00  0.1000000E+00  0.7895343E-02 -0.9210466E-01  0.9846167E+00  0.3249235E+00  0.1538331E-01  0.5076492E-02
  0.0000000E+00  0.0000000E+00  0.1500000E+00  0.1366198E-01 -0.1363380E+00  0.9728884E+00  0.3210532E+00  0.2711159E-01  0.8946824E-02
  0.0000000E+00  0.0000000E+00  0.2000000E+00  0.2080429E-01 -0.1791957E+00  0.9601502E+00  0.3168496E+00  0.3984976E-01  0.1315042E-01
  0.0000000E+00  0.0000000E+00  0.2500000E+00  0.2946282E-01 -0.2205372E+00  0.9470188E+00  0.3125162E+00  0.5298117E-01  0.1748379E-01
  0.0000000E+00  0.0000000E+00  0.3000000E+00  0.3977442E-01 -0.2602256E+00  0.9339179E+00  0.3081929E+00  0.6608209E-01  0.2180709E-01
  0.0000000E+00  0.0000000E+00  0.3500000E+00  0.5186370E-01 -0.2981363E+00  0.9211417E+00  0.3039768E+00  0.7885829E-01  0.2602324E-01
  0.0000000E+00  0.0000000E+00  0.4000000E+00  0.6583636E-01 -0.3341636E+00  0.9088907E+00  0.2999339E+00  0.9110930E-01  0.3006607E-01
  0.0000000E+00  0.0000000E+00  0.4500000E+00  0.8177423E-01 -0.3682258E+00  0.8972954E+00  0.2961075E+00  0.1027046E+00  0.3389253E-01
  0.0000000E+00  0.0000000E+00  0.5000000E+00  0.9973190E-01 -0.4002681E+00  0.8864333E+00  0.2925230E+00  0.1135667E+00  0.3747702E-01
  0.0000000E+00  0.0000000E+00  0.5500000E+00  0.1197351E+00 -0.4302649E+00  0.8763423E+00  0.2891930E+00  0.1236577E+00  0.4080704E-01
  0.0000000E+00  0.0000000E+00  0.6000000E+00  0.1417807E+00 -0.4582193E+00  0.8670306E+00  0.2861201E+00  0.1329694E+00  0.4387990E-01
  0.0000000E+00  0.0000000E+00  0.6500000E+00  0.1658384E+00 -0.4841616E+00  0.8584847E+00  0.2832999E+00  0.1415153E+00  0.4670006E-01
  0.0000000E+00  0.0000000E+00  0.7000000E+00  0.1918530E+00 -0.5081470E+00  0.8506755E+00  0.2807229E+00  0.1493245E+00  0.4927708E-01
  0.0000000E+00  0.0000000E+00  0.7500000E+00  0.2197486E+00 -0.5302514E+00  0.8435637E+00  0.2783760E+00  0.1564363E+00  0.5162397E-01
  0.0000000E+00  0.0000000E+00  0.8000000E+00  0.2494323E+00 -0.5505677E+00  0.8371033E+00  0.2762441E+00  0.1628967E+00  0.5375591E-01
  0.0000000E+00  0.0000000E+00  0.8500000E+00  0.2807983E+00 -0.5692017E+00  0.8312446E+00  0.2743107E+00  0.1687554E+00  0.5568928E-01
  0.0000000E+00  0.0000000E+00  0.9000000E+00  0.3137323E+00 -0.5862677E+00  0.8259366E+00  0.2725591E+00  0.1740634E+00  0.5744092E-01
  0.0000000E+00  0.0000000E+00  0.9500000E+00  0.3481153E+00 -0.6018847E+00  0.8211287E+00  0.2709725E+00  0.1788713E+00  0.5902753E-01
  0.0000000E+00  0.0000000E+00  0.1000000E+01  0.3838268E+00 -0.6161732E+00  0.8167718E+00  0.2695347E+00  0.1832282E+00  0.6046530E-01
  0.0000000E+00  0.0000000E+00  0.1050000E+01  0.4207473E+00 -0.6292527E+00  0.8128193E+00  0.2682304E+00  0.1871807E+00  0.6176964E-01
  0.0000000E+00  0.0000000E+00  0.1100000E+01  0.4587612E+00 -0.6412388E+00  0.8092272E+00  0.2670450E+00  0.1907728E+00  0.6295501E-01
  0.0000000E+00  0.0000000E+00  0.1150000E+01  0.4977575E+00 -0.6522425E+00  0.8059552E+00  0.2659652E+00  0.1940448E+00  0.6403477E-01
  0.0000000E+00  0.0000000E+00  0.1200000E+01  0.5376318E+00 -0.6623682E+00  0.8029660E+00  0.2649788E+00  0.1970340E+00  0.6502120E-01
  0.0000000E+00  0.0000000E+00  0.1250000E+01  0.5782867E+00 -0.6717133E+00  0.8002258E+00  0.2640745E+00  0.1997742E+00  0.6592548E-01
  0.0000000E+00  0.0000000E+00  0.1300000E+01  0.6196321E+00 -0.6803679E+00  0.7977040E+00  0.2632423E+00  0.2022960E+00  0.6675769E-01
  0.0000000E+00  0.0000000E+00  0.1350000E+01  0.6615854E+00 -0.6884146E+00  0.7953730E+00  0.2624731E+00  0.2046270E+00  0.6752691E-01
  0.0000000E+00  0.0000000E+00  0.1400000E+01  0.7040714E+00 -0.6959286E+00  0.7932083E+00  0.2617587E+00  0.2067917E+00  0.6824125E-01
  0.0000000E+00  0.0000000E+00  0.1450000E+01  0.7470221E+00 -0.7029779E+00  0.7911880E+00  0.2610921E+00  0.2088120E+00  0.6890795E-01
  0.0000000E+00  0.0000000E+00  0.1500000E+01  0.7903761E+00 -0.7096239E+00  0.7892927E+00  0.2604666E+00  0.2107073E+00  0.6953341E-01
  0.0000000E+00  0.0000000E+00  0.1550000E+01  0.8340786E+00 -0.7159214E+00  0.7875051E+00  0.2598767E+00  0.2124949E+00  0.7012333E-01
  0.0000000E+00  0.0000000E+00  0.1600000E+01  0.8780804E+00 -0.7219196E+00  0.7858099E+00  0.2593173E+00  0.2141901E+00  0.7068272E-01
  0.0000000E+00  0.0000000E+00  0.1650000E+01  0.9223376E+00 -0.7276624E+00  0.7841939E+00  0.2587840E+00  0.2158061E+00  0.7121601E-01
  0.0000000E+00  0.0000000E+00  0.1700000E+01  0.9668114E+00 -0.7331886E+00  0.7826452E+00  0.2582729E+00  0.2173548E+00  0.7172709E-01
  0.0000000E+00  0.0000000E+00  0.1750000E+01  0.1011467E+01 -0.7385329E+00  0.7811534E+00  0.2577806E+00  0.2188466E+00  0.7221939E-01
  0.0000000E+00  0.0000000E+00  0.1800000E+01  0.1056274E+01 -0.7437260E+00  0.7797094E+00  0.2573041E+00  0.2202906E+00  0.7269591E-01
  0.0000000E+00  0.0000000E+00  0.1850000E+01  0.1101205E+01 -0.7487949E+00  0.7783052E+00  0.2568407E+00  0.2216948E+00  0.7315929E-01
  0.0000000E+00  0.0000000E+00  0.1900000E+01  0.1146236E+01 -0.7537639E+00  0.7769338E+00  0.2563881E+00  0.2230662E+00  0.7361185E-01
  0.0000000E+00  0.0000000E+00  0.1950000E+01  0.1191346E+01 -0.7586542E+00  0.7755890E+00  0.2559444E+00  0.2244110E+00  0.7405563E-01
  0.0000000E+00  0.0000000E+00  0.2000000E+01  0.1236515E+01 -0.7634847E+00  0.7742654E+00  0.2555076E+00  0.2257346E+00  0.7449241E-01
  0.0000000E+00  0.0000000E+00  0.2050000E+01  0.1281728E+01 -0.7682722E+00  0.7729583E+00  0.2550762E+00  0.2270417E+00  0.7492377E-01
  0.0000000E+00  0.0000000E+00  0.2100000E+01  0.1326968E+01 -0.7730317E+00  0.7716634E+00  0.2546489E+00  0.2283366E+00  0.7535107E-01
  0.0000000E+00  0.0000000E+00  0.2150000E+01  0.1372224E+01 -0.7777765E+00  0.7703771E+00  0.2542244E+00  0.2296229E+00  0.7577555E-01
  0.0000000E+00  0.0000000E+00  0.2200000E+01  0.1417482E+01 -0.7825183E+00  0.7690962E+00  0.2538017E+00  0.2309038E+00  0.7619827E-01
  0.0000000E+00  0.0000000E+00  0.2250000E+01  0.1462732E+01 -0.7872679E+00  0.7678176E+00  0.2533798E+00  0.2321824E+00  0.7662018E-01
  0.0000000E+00  0.0000000E+00  0.2300000E+01  0.1507965E+01 -0.7920348E+00  0.7665390E+00  0.2529579E+00  0.2334610E+00  0.7704213E-01
  0.0000000E+00  0.0000000E+00  0.2350000E+01  0.1553172E+01 -0.7968277E+00  0.7652580E+00  0.2525351E+00  0.2347420E+00  0.7746485E-01
  0.0000000E+00  0.0000000E+00  0.2400000E+01  0.1598345E+01 -0.8016545E+00  0.7639726E+00  0.2521110E+00  0.2360274E+00  0.7788903E-01
  0.0000000E+00  0.0000000E+00  0.2450000E+01  0.1643478E+01 -0.8065223E+00  0.7626810E+00  0.2516847E+00  0.2373190E+00  0.7831525E-01
  0.0000000E+00  0.0000000E+00  0.2500000E+01  0.1688562E+01 -0.8114378E+00  0.7613816E+00  0.2512559E+00  0.2386184E+00  0.7874407E-01
  0.0000000E+00  0.0000000E+00  0.2550000E+01  0.1733593E+01 -0.8164070E+00  0.7600729E+00  0.2508240E+00  0.2399271E+00  0.7917596E-01
  0.0000000E+00  0.0000000E+00  0.2600000E+01  0.1778564E+01 -0.8214356E+00  0.7587534E+00  0.2503886E+00  0.2412466E+00  0.7961137E-01
  0.0000000E+00  0.0000000E+00  0.2650000E+01  0.1823471E+01 -0.8265291E+00  0.7574221E+00  0.2499493E+00  0.2425779E+00  0.8005071E-01
  0.0000000E+00  0.0000000E+00  0.2700000E+01  0.1868307E+01 -0.8316925E+00  0.7560777E+00  0.2495056E+00  0.2439223E+00  0.8049435E-01
  0.0000000E+00  0.0000000E+00  0.2750000E+01  0.1913069E+01 -0.8369307E+00  0.7547192E+00  0.2490574E+00  0.2452808E+00  0.8094265E-01
  0.0000000E+00  0.0000000E+00  0.2800000E+01  0.1957752E+01 -0.8422483E+00  0.7533457E+00  0.2486041E+00  0.2466543E+00  0.8139593E-01
  0.0000000E+00  0.0000000E+00  0.2850000E+01  0.2002350E+01 -0.8476500E+00  0.7519561E+00  0.2481455E+00  0.2480439E+00  0.8185449E-01
  0.0000000E+00  0.0000000E+00  0.2900000E+01  0.2046860E+01 -0.8531401E+00  0.7505496E+00  0.2476814E+00  0.2494504E+00  0.8231864E-01
  0.0000000E+00  0.0000000E+00  0.2950000E+01  0.2091277E+01 -0.8587230E+00  0.7491253E+00  0.2472113E+00  0.2508747E+00  0.8278866E-01
  0.0000000E+00  0.0000000E+00  0.3000000E+01  0.2135597E+01 -0.8644032E+00  0.7476824E+00  0.2467352E+00  0.2523176E+00  0.8326481E-01
  0.0000000E+00  0.0000000E+00  0.3050000E+01  0.2179815E+01 -0.8701850E+00  0.7462201E+00  0.2462526E+00  0.2537799E+00  0.8374736E-01
  0.0000000E+00  0.0000000E+00  0.3100000E+01  0.2223927E+01 -0.8760728E+00  0.7447376E+00  0.2457634E+00  0.2552624E+00  0.8423658E-01
  0.0000000E+00  0.0000000E+00  0.3150000E+01  0.2267929E+01 -0.8820711E+00  0.7432342E+00  0.2452673E+00  0.2567658E+00  0.8473273E-01
  0.0000000E+00  0.0000000E+00  0.3200000E+01  0.2311816E+01 -0.8881844E+00  0.7417089E+00  0.2447639E+00  0.2582911E+00  0.8523605E-01
  0.0000000E+00  0.0000000E+00  0.3250000E+01  0.2355583E+01 -0.8944174E+00  0.7401612E+00  0.2442532E+00  0.2598388E+00  0.8574681E-01
  0.0000000E+00  0.0000000E+00  0.3300000E+01  0.2399225E+01 -0.9007749E+00  0.7385901E+00  0.2437347E+00  0.2614099E+00  0.8626527E-01
  0.0000000E+00  0.0000000E+00  0.3350000E+01  0.2442738E+01 -0.9072617E+00  0.7369949E+00  0.2432083E+00  0.2630051E+00  0.8679168E-01
  0.0000000E+00  0.0000000E+00  0.3400000E+01  0.2486117E+01 -0.9138830E+00  0.7353748E+00  0.2426737E+00  0.2646252E+00  0.8732632E-01
  0.0000000E+00  0.0000000E+00  0.3450000E+01  0.2529356E+01 -0.9206441E+00  0.7337289E+00  0.2421306E+00  0.2662711E+00  0.8786945E-01
  0.0000000E+00  0.0000000E+00  0.3500000E+01  0.2572449E+01 -0.9275505E+00  0.7320565E+00  0.2415786E+00  0.2679435E+00  0.8842135E-01
  0.0000000E+00  0.0000000E+00  0.3550000E+01  0.2615392E+01 -0.9346079E+00  0.7303566E+00  0.2410177E+00  0.2696434E+00  0.8898231E-01
  0.0000000E+00  0.0000000E+00  0.3600000E+01  0.2658178E+01 -0.9418223E+00  0.7286284E+00  0.2404474E+00  0.2713716E+00  0.8955263E-01
  0.0000000E+00  0.0000000E+00  0.3650000E+01  0.2700800E+01 -0.9492000E+00  0.7268709E+00  0.2398674E+00  0.2731291E+00  0.9013261E-01
  0.0000000E+00  0.0000000E+00  0.3700000E+01  0.2743252E+01 -0.9567477E+00  0.7250832E+00  0.2392774E+00  0.2749168E+00  0.9072255E-01
  0.0000000E+00  0.0000000E+00  0.3750000E+01  0.2785528E+01 -0.9644722E+00  0.7232642E+00  0.2386772E+00  0.2767358E+00  0.9132280E-01
  0.0000000E+00  0.0000000E+00  0.3800000E+01  0.2827619E+01 -0.9723808E+00  0.7214131E+00  0.2380663E+00  0.2785869E+00  0.9193369E-01
  0.0000000E+00  0.0000000E+00  0.3850000E+01  0.2869519E+01 -0.9804812E+00  0.7195286E+00  0.2374444E+00  0.2804714E+00  0.9255557E-01
  0.0000000E+00  0.0000000E+00  0.3900000E+01  0.2911218E+01 -0.9887816E+00  0.7176097E+00  0.2368112E+00  0.2823903E+00  0.9318882E-01
  0.0000000E+00  0.0000000E+00  0.3950000E+01  0.2952709E+01 -0.9972905E+00  0.7156551E+00  0.2361662E+00  0.2843449E+00  0.9383381E-01
  0.0000000E+00  0.0000000E+00  0.4000000E+01  0.2993983E+01 -0.1006017E+01  0.7136638E+00  0.2355090E+00  0.2863362E+00  0.9449095E-01
  0.0000000E+00  0.0000000E+00  0.4050000E+01  0.3035029E+01 -0.1014971E+01  0.7116343E+00  0.2348393E+00  0.2883657E+00  0.9516067E-01
  0.0000000E+00  0.0000000E+00  0.4100000E+01  0.3075838E+01 -0.1024162E+01  0.7095655E+00  0.2341566E+00  0.2904345E+00  0.9584340E-01
  0.0000000E+00  0.0000000E+00  0.4150000E+01  0.3116398E+01 -0.1033602E+01  0.7074557E+00  0.2334604E+00  0.2925443E+00  0.9653961E-01
  0.0000000E+00  0.0000000E+00  0.4200000E+01  0.3156699E+01 -0.1043301E+01  0.7053037E+00  0.2327502E+00  0.2946963E+00  0.9724979E-01
  0.0000000E+00  0.0000000E+00  0.4250000E+01  0.3196727E+01 -0.1053273E+01  0.7031077E+00  0.2320256E+00  0.2968923E+00  0.9797445E-01
  0.0000000E+00  0.0000000E+00  0.4300000E+01  0.3236470E+01 -0.1063530E+01  0.7008663E+00  0.2312859E+00  0.2991337E+00  0.9871413E-01
  0.0000000E+00  0.0000000E+00  0.4350000E+01  0.3275914E+01 -0.1074086E+01  0.6985776E+00  0.2305306E+00  0.3014224E+00  0.9946940E-01
  0.0000000E+00  0.0000000E+00  0.4400000E+01  0.3315044E+01 -0.1084956E+01  0.6962398E+00  0.2297591E+00  0.3037602E+00  0.1002409E+00
  0.0000000E+00  0.0000000E+00  0.4450000E+01  0.3353843E+01 -0.1096157E+01  0.6938511E+00  0.2289709E+00  0.3061489E+00  0.1010291E+00
  0.0000000E+00  0.0000000E+00  0.4500000E+01  0.3392296E+01 -0.1107704E+01  0.6914093E+00  0.2281651E+00  0.3085907E+00  0.1018349E+00
  0.0000000E+00  0.0000000E+00  0.4550000E+01  0.3430382E+01 -0.1119618E+01  0.6889124E+00  0.2273411E+00  0.3110876E+00  0.1026589E+00
  0.0000000E+00  0.0000000E+00  0.4600000E+01  0.3468082E+01 -0.1131918E+01  0.6863580E+00  0.2264981E+00  0.3136420E+00  0.1035019E+00
  0.0000000E+00  0.0000000E+00  0.4650000E+01  0.3505376E+01 -0.1144624E+01  0.6837437E+00  0.2256354E+00  0.3162563E+00  0.1043646E+00
  0.0000000E+00  0.0000000E+00  0.4700000E+01  0.3542240E+01 -0.1157760E+01  0.6810670E+00  0.2247521E+00  0.3189330E+00  0.1052479E+00
  0.0000000E+00  0.0000000E+00  0.4750000E+01  0.3578649E+01 -0.1171351E+01  0.6783252E+00  0.2238473E+00  0.3216748E+00  0.1061527E+00
  0.0000000E+00  0.0000000E+00  0.4800000E+01  0.3614576E+01 -0.1185424E+01  0.6755152E+00  0.2229200E+00  0.3244848E+00  0.1070800E+00
  0.0000000E+00  0.0000000E+00  0.4850000E+01  0.3649992E+01 -0.1200008E+01  0.6726341E+00  0.2219692E+00  0.3273659E+00  0.1080308E+00
  0.0000000E+00  0.0000000E+00  0.4900000E+01  0.3684866E+01 -0.1215134E+01  0.6696784E+00  0.2209939E+00  0.3303216E+00  0.1090061E+00
  0.0000000E+00  0.0000000E+00  0.4950000E+01  0.3719164E+01 -0.1230836E+01  0.6666447E+00  0.2199928E+00  0.3333553E+00  0.1100072E+00
  0.0000000E+00  0.0000000E+00  0.5000000E+01  0.3752846E+01 -0.1247154E+01  0.6635292E+00  0.2189646E+00  0.3364708E+00  0.1110354E+00
  0.0000000E+00  0.0000000E+00  0.5050000E+01  0.3785874E+01 -0.1264126E+01  0.6603278E+00  0.2179082E+00  0.3396722E+00  0.1120918E+00
  0.0000000E+00  0.0000000E+00  0.5100000E+01  0.3818201E+01 -0.1281799E+01  0.6570361E+00  0.2168219E+00  0.3429639E+00  0.1131781E+00
  0.0000000E+00  0.0000000E+00  0.5150000E+01  0.3849779E+01 -0.1300221E+01  0.6536494E+00  0.2157043E+00  0.3463506E+00  0.1142957E+00
  0.0000000E+00  0.0000000E+00  0.5200000E+01  0.3880553E+01 -0.1319447E+01  0.6501627E+00  0.2145537E+00  0.3498373E+00  0.1154463E+00
  0.0000000E+00  0.0000000E+00  0.5250000E+01  0.3910465E+01 -0.1339535E+01  0.6465706E+00  0.2133683E+00  0.3534294E+00  0.1166317E+00
  0.0000000E+00  0.0000000E+00  0.5300000E+01  0.3939447E+01 -0.1360553E+01  0.6428670E+00  0.2121461E+00  0.3571330E+00  0.1178539E+00
  0.0000000E+00  0.0000000E+00  0.5350000E+01  0.3967427E+01 -0.1382573E+01  0.6390456E+00  0.2108851E+00  0.3609544E+00  0.1191149E+00
  0.0000000E+00  0.0000000E+00  0.5400000E+01  0.3994323E+01 -0.1405677E+01  0.6350995E+00  0.2095828E+00  0.3649005E+00  0.1204172E+00
  0.0000000E+00  0.0000000E+00  0.5450000E+01  0.4020045E+01 -0.1429955E+01  0.6310211E+00  0.2082370E+00  0.3689789E+00  0.1217630E+00
  0.0000000E+00  0.0000000E+00  0.5500000E+01  0.4044491E+01 -0.1455509E+01  0.6268021E+00  0.2068447E+00  0.3731979E+00  0.1231553E+00
  0.0000000E+00  0.0000000E+00  0.5550000E+01  0.4067547E+01 -0.1482453E+01  0.6224335E+00  0.2054031E+00  0.3775665E+00  0.1245969E+00
  0.0000000E+00  0.0000000E+00  0.5600000E+01  0.4089085E+01 -0.1510915E+01  0.6179055E+00  0.2039088E+00  0.3820945E+00  0.1260912E+00
  0.0000000E+00  0.0000000E+00  0.5650000E+01  0.4108959E+01 -0.1541041E+01  0.6132070E+00  0.2023583E+00  0.3867930E+00  0.1276417E+00
  0.0000000E+00  0.0000000E+00  0.5700000E+01  0.4127004E+01 -0.1572996E+01  0.6083263E+00  0.2007477E+00  0.3916737E+00  0.1292523E+00
  0.0000000E+00  0.0000000E+00  0.5750000E+01  0.4143030E+01 -0.1606970E+01  0.6032500E+00  0.1990725E+00  0.3967500E+00  0.1309275E+00
  0.0000000E+00  0.0000000E+00  0.5800000E+01  0.4156822E+01 -0.1643178E+01  0.5979634E+00  0.1973279E+00  0.4020366E+00  0.1326721E+00
  0.0000000E+00  0.0000000E+00  0.5850000E+01  0.4168130E+01 -0.1681870E+01  0.5924502E+00  0.1955086E+00  0.4075498E+00  0.1344914E+00
  0.0000000E+00  0.0000000E+00  0.5900000E+01  0.4176663E+01 -0.1723337E+01  0.5866920E+00  0.1936084E+00  0.4133080E+00  0.1363916E+00
  0.0000000E+00  0.0000000E+00  0.5950000E+01  0.4182083E+01 -0.1767917E+01  0.5806685E+00  0.1916206E+00  0.4193315E+00  0.1383794E+00
  0.0000000E+00  0.0000000E+00  0.6000000E+01  0.4183993E+01 -0.1816007E+01  0.5743563E+00  0.1895376E+00  0.4256437E+00  0.1404624E+00
