title = "dataset appelo"
variables = "time","h+1","co3-2","ca+2","oh-","hco3-","h2co3aq"
zone t = "C_j, X_i, kinetically controlled dissolution of calcite", f=point
  0.0000000E+00  0.2099976E-04  0.4778195E-10  0.1000000E-10  0.4835222E-09  0.2099918E-04  0.9790008E-03
  0.1000000E-04  0.1948054E-04  0.5565251E-10  0.1586586E-05  0.5216406E-09  0.2265306E-04  0.9789335E-03
  0.2500000E-04  0.1759738E-04  0.6839252E-10  0.3749620E-05  0.5780589E-09  0.2509588E-04  0.9786537E-03
  0.4750000E-04  0.1542025E-04  0.8935430E-10  0.6618386E-05  0.6605353E-09  0.2865617E-04  0.9779621E-03
  0.8125000E-04  0.1309918E-04  0.1242457E-09  0.1032095E-04  0.7788235E-09  0.3374003E-04  0.9765808E-03
  0.1318750E-03  0.1082440E-04  0.1825454E-09  0.1499234E-04  0.9442906E-09  0.4080775E-04  0.9741844E-03
  0.2078125E-03  0.8758187E-05  0.2796018E-09  0.2079760E-04  0.1169633E-08  0.5035165E-04  0.9704457E-03
  0.3217188E-03  0.6988311E-05  0.4399897E-09  0.2796151E-04  0.1469511E-08  0.6290896E-04  0.9650521E-03
  0.4925781E-03  0.5529235E-05  0.7033129E-09  0.3679758E-04  0.1862474E-08  0.7912111E-04  0.9576758E-03
  0.7488672E-03  0.4351384E-05  0.1134509E-08  0.4773709E-04  0.2373967E-08  0.9982090E-04  0.9479151E-03
  0.1133301E-02  0.3409324E-05  0.1842312E-08  0.6136415E-04  0.3040414E-08  0.1261309E-03  0.9352314E-03
  0.1709951E-02  0.2657838E-05  0.3012938E-08  0.7846377E-04  0.3915119E-08  0.1595754E-03  0.9188853E-03
  0.2574927E-02  0.2058157E-05  0.4973299E-08  0.1000889E-03  0.5077718E-08  0.2022209E-03  0.8978630E-03
  0.3872390E-02  0.1579071E-05  0.8313893E-08  0.1276520E-03  0.6650493E-08  0.2568598E-03  0.8707839E-03
  0.5818585E-02  0.1196094E-05  0.1413780E-07  0.1630448E-03  0.8828209E-08  0.3272485E-03  0.8357821E-03
  0.8737878E-02  0.8901563E-06  0.2459118E-07  0.2087823E-03  0.1193633E-07  0.4183935E-03  0.7903641E-03
  0.1311682E-01  0.6463880E-06  0.4406735E-07  0.2681446E-03  0.1655407E-07  0.5368308E-03  0.7312696E-03
  0.1968523E-01  0.4531400E-06  0.8217698E-07  0.3452272E-03  0.2380273E-07  0.6907193E-03  0.6544256E-03
  0.2953784E-01  0.3013000E-06  0.1619629E-06  0.4446306E-03  0.3611900E-07  0.8892024E-03  0.5552660E-03
  0.4431676E-01  0.1839825E-06  0.3465301E-06  0.5699465E-03  0.5973088E-07  0.1139324E-02  0.4302756E-03
  0.6648513E-01  0.9712749E-07  0.8428280E-06  0.7177944E-03  0.1142870E-06  0.1433886E-02  0.2830654E-03
  0.9973770E-01  0.4278649E-07  0.2314350E-05  0.8553888E-03  0.2616083E-06  0.1705929E-02  0.1471441E-03
  0.1496166E+00  0.2301660E-07  0.4652133E-05  0.9204596E-03  0.4881148E-06  0.1831149E-02  0.8465741E-04
  0.2244348E+00  0.1923826E-07  0.5653654E-05  0.9345091E-03  0.5844386E-06  0.1857145E-02  0.7170950E-04
  0.3366622E+00  0.1875981E-07  0.5809472E-05  0.9363449E-03  0.5994055E-06  0.1860489E-02  0.7004500E-04
