title = "dataset albite"
variables = "time","ca+2","na+1","co3-2","h4sio4","al+3","h+1"
zone t = "T_j, background chemistry", f=point
  0.0000000E+00  0.1695120E-04  0.1000000E-05  0.2695120E-04  0.1000000E-05  0.1000000E-05  0.2154000E-03
  0.1000000E-01  0.6602703E-04  0.1001655E-05  0.7602703E-04  0.1004965E-05  0.1001655E-05  0.2153934E-03
  0.2500000E-01  0.8922302E-04  0.1003192E-05  0.9922302E-04  0.1009577E-05  0.1003192E-05  0.2153872E-03
  0.4750000E-01  0.9986100E-04  0.1004757E-05  0.1098610E-03  0.1014271E-05  0.1004757E-05  0.2153810E-03
  0.8125000E-01  0.1075512E-03  0.1006791E-05  0.1175512E-03  0.1020373E-05  0.1006791E-05  0.2153728E-03
  0.1318750E+00  0.1152535E-03  0.1009762E-05  0.1252535E-03  0.1029286E-05  0.1009762E-05  0.2153610E-03
  0.2078125E+00  0.1240606E-03  0.1014296E-05  0.1340606E-03  0.1042887E-05  0.1014296E-05  0.2153428E-03
  0.3217188E+00  0.1347995E-03  0.1021412E-05  0.1447995E-03  0.1064237E-05  0.1021412E-05  0.2153144E-03
  0.4925781E+00  0.1483860E-03  0.1032929E-05  0.1583861E-03  0.1098788E-05  0.1032929E-05  0.2152683E-03
  0.7488672E+00  0.1659796E-03  0.1052497E-05  0.1759796E-03  0.1157491E-05  0.1052497E-05  0.2151900E-03
  0.1133301E+01  0.1890502E-03  0.1090148E-05  0.1990502E-03  0.1270445E-05  0.1090148E-05  0.2150394E-03
  0.1709951E+01  0.2156348E-03  0.1215547E-05  0.2256348E-03  0.1646641E-05  0.1215547E-05  0.2145378E-03
  0.2574927E+01  0.2343808E-03  0.1480188E-05  0.2443808E-03  0.2440565E-05  0.1480189E-05  0.2134793E-03
  0.3872390E+01  0.2441612E-03  0.1914241E-05  0.2541612E-03  0.3742722E-05  0.1914241E-05  0.2117431E-03
  0.5818585E+01  0.2480824E-03  0.2582900E-05  0.2580824E-03  0.5748699E-05  0.2582900E-05  0.2090684E-03
  0.8737878E+01  0.2495356E-03  0.3591764E-05  0.2595356E-03  0.8775292E-05  0.3591764E-05  0.2050330E-03
  0.1311682E+02  0.2504271E-03  0.5104527E-05  0.2604271E-03  0.1331358E-04  0.5104527E-05  0.1989819E-03
  0.1968523E+02  0.2514920E-03  0.7368438E-05  0.2614920E-03  0.2010531E-04  0.7368439E-05  0.1899263E-03
  0.2953784E+02  0.2530252E-03  0.1075153E-04  0.2630253E-03  0.3025458E-04  0.1075153E-04  0.1763940E-03
  0.4431676E+02  0.2552605E-03  0.1579297E-04  0.2652606E-03  0.4537891E-04  0.1579298E-04  0.1562282E-03
  0.6648513E+02  0.2584625E-03  0.2322616E-04  0.2684627E-03  0.6767849E-04  0.2322617E-04  0.1264955E-03
  0.9973770E+02  0.2627497E-03  0.3356295E-04  0.2727500E-03  0.9868883E-04  0.3356298E-04  0.8514845E-04
  0.1496166E+03  0.2672159E-03  0.4477064E-04  0.2772169E-03  0.1323119E-03  0.4477078E-04  0.4031793E-04
  0.2244348E+03  0.2700587E-03  0.5210413E-04  0.2800598E-03  0.1543123E-03  0.5210430E-04  0.1098406E-04
  0.3366622E+03  0.2711505E-03  0.5495305E-04  0.2811520E-03  0.1628591E-03  0.5495329E-04 -0.4115346E-06
  0.5050034E+03  0.2714275E-03  0.5567868E-04  0.2814290E-03  0.1650360E-03  0.5567892E-04 -0.3314044E-05
  0.7575150E+03  0.2714760E-03  0.5580579E-04  0.2814774E-03  0.1654173E-03  0.5580602E-04 -0.3822534E-05
