title = "dataset albite"
variables = "time","calcite","albite"
zone t = "Mineral saturation indices, background chemistry", f=point
   .0000000E+00  -.9990542E+01  -.1748524E+02
   .1000000E-01  -.8141564E+01  -.1590565E+02
   .2500000E-01  -.6874653E+01  -.1400102E+02
   .4750000E-01  -.5694450E+01  -.1226892E+02
   .8125000E-01  -.4904280E+01  -.1132093E+02
   .1318750E+00  -.4389413E+01  -.1079223E+02
   .2078125E+00  -.3974762E+01  -.1042633E+02
   .3217188E+00  -.3589455E+01  -.1014914E+02
   .4925781E+00  -.3192985E+01  -.9931735E+01
   .7488672E+00  -.2740314E+01  -.9747032E+01
   .1133301E+01  -.2108437E+01  -.9544386E+01
   .1709951E+01  -.7444348E+00  -.9148631E+01
   .2574927E+01  -.2115612E+00  -.8583351E+01
   .3872390E+01  -.6236239E-01  -.7859339E+01
   .5818585E+01  -.1576593E-01  -.7059392E+01
   .8737878E+01  -.3852647E-02  -.6226050E+01
   .1311682E+02  -.1591833E-02  -.5377077E+01
   .1968523E+02  -.1275399E-02  -.4519227E+01
   .2953784E+02  -.1225145E-02  -.3655765E+01
   .3953784E+02  -.1198318E-02  -.3032858E+01
   .4953784E+02  -.1172692E-02  -.2550810E+01
   .5953784E+02  -.1145192E-02  -.2158554E+01
   .6953784E+02  -.1115725E-02  -.1829284E+01
   .7953784E+02  -.1081557E-02  -.1547462E+01
   .8953784E+02  -.1040650E-02  -.1303536E+01
   .9953784E+02  -.9911656E-03  -.1091399E+01
   .1095378E+03  -.9318587E-03  -.9070056E+00
   .1195378E+03  -.8625168E-03  -.7475059E+00
   .1295378E+03  -.7842644E-03  -.6106761E+00
   .1395378E+03  -.6995612E-03  -.4945396E+00
   .1495378E+03  -.6118423E-03  -.3971451E+00
   .1595378E+03  -.5249002E-03  -.3164773E+00
   .1695378E+03  -.4422234E-03  -.2504649E+00
   .1795378E+03  -.3665007E-03  -.1970436E+00
   .1895378E+03  -.2993971E-03  -.1542372E+00
   .1995378E+03  -.2415848E-03  -.1202269E+00
   .2095378E+03  -.1929383E-03  -.9339753E-01
   .2195378E+03  -.1534694E-03  -.7235694E-01
   .2295378E+03  -.1208357E-03  -.5593439E-01
   .2395378E+03  -.9457999E-04  -.4316481E-01
   .2495378E+03  -.7369801E-04  -.3326549E-01
   .2595378E+03  -.5722514E-04  -.2560943E-01
   .2695378E+03  -.4431229E-04  -.1969926E-01
   .2795378E+03  -.3423977E-04  -.1514341E-01
   .2895378E+03  -.2641282E-04  -.1163548E-01
   .2995378E+03  -.2034881E-04  -.8936760E-02
   .3095378E+03  -.1566140E-04  -.6861972E-02
   .3195378E+03  -.1204449E-04  -.5267688E-02
   .3295378E+03  -.9257407E-05  -.4043114E-02
