title = "dataset tranvs"
variables = "x", "y", "z", "h_w", "p_w", "s_w", "theta_a", "s_a", "theta_g"
zone t = "Flow variables, solution time =  1.000E+00 days        " i =   21, j =   21, k =    1,  f=point
  0.0000000E+00  0.0000000E+00  0.0000000E+00  0.6771521E-01  0.6771521E-01  0.1000000E+01  0.3000000E+00  0.0000000E+00  0.0000000E+00
  0.5000000E-01  0.0000000E+00  0.0000000E+00  0.6719052E-01  0.6719052E-01  0.1000000E+01  0.3000000E+00  0.0000000E+00  0.0000000E+00
  0.1000000E+00  0.0000000E+00  0.0000000E+00  0.6560135E-01  0.6560135E-01  0.1000000E+01  0.3000000E+00  0.0000000E+00  0.0000000E+00
  0.1500000E+00  0.0000000E+00  0.0000000E+00  0.6290147E-01  0.6290147E-01  0.1000000E+01  0.3000000E+00  0.0000000E+00  0.0000000E+00
  0.2000000E+00  0.0000000E+00  0.0000000E+00  0.5901064E-01  0.5901064E-01  0.1000000E+01  0.3000000E+00  0.0000000E+00  0.0000000E+00
  0.2500000E+00  0.0000000E+00  0.0000000E+00  0.5380964E-01  0.5380964E-01  0.1000000E+01  0.3000000E+00  0.0000000E+00  0.0000000E+00
  0.3000000E+00  0.0000000E+00  0.0000000E+00  0.4713265E-01  0.4713265E-01  0.1000000E+01  0.3000000E+00  0.0000000E+00  0.0000000E+00
  0.3500000E+00  0.0000000E+00  0.0000000E+00  0.3875664E-01  0.3875664E-01  0.1000000E+01  0.3000000E+00  0.0000000E+00  0.0000000E+00
  0.4000000E+00  0.0000000E+00  0.0000000E+00  0.2838663E-01  0.2838663E-01  0.1000000E+01  0.3000000E+00  0.0000000E+00  0.0000000E+00
  0.4500000E+00  0.0000000E+00  0.0000000E+00  0.1563600E-01  0.1563600E-01  0.1000000E+01  0.3000000E+00  0.0000000E+00  0.0000000E+00
  0.5000000E+00  0.0000000E+00  0.0000000E+00  0.0000000E+00  0.0000000E+00  0.1000000E+01  0.3000000E+00  0.0000000E+00  0.0000000E+00
  0.5500000E+00  0.0000000E+00  0.0000000E+00  0.0000000E+00  0.0000000E+00  0.1000000E+01  0.3000000E+00  0.0000000E+00  0.0000000E+00
  0.6000000E+00  0.0000000E+00  0.0000000E+00  0.0000000E+00  0.0000000E+00  0.1000000E+01  0.3000000E+00  0.0000000E+00  0.0000000E+00
  0.6500000E+00  0.0000000E+00  0.0000000E+00  0.0000000E+00  0.0000000E+00  0.1000000E+01  0.3000000E+00  0.0000000E+00  0.0000000E+00
  0.7000000E+00  0.0000000E+00  0.0000000E+00  0.0000000E+00  0.0000000E+00  0.1000000E+01  0.3000000E+00  0.0000000E+00  0.0000000E+00
  0.7500000E+00  0.0000000E+00  0.0000000E+00  0.0000000E+00  0.0000000E+00  0.1000000E+01  0.3000000E+00  0.0000000E+00  0.0000000E+00
  0.8000000E+00  0.0000000E+00  0.0000000E+00  0.0000000E+00  0.0000000E+00  0.1000000E+01  0.3000000E+00  0.0000000E+00  0.0000000E+00
  0.8500000E+00  0.0000000E+00  0.0000000E+00  0.0000000E+00  0.0000000E+00  0.1000000E+01  0.3000000E+00  0.0000000E+00  0.0000000E+00
  0.9000000E+00  0.0000000E+00  0.0000000E+00  0.0000000E+00  0.0000000E+00  0.1000000E+01  0.3000000E+00  0.0000000E+00  0.0000000E+00
  0.9500000E+00  0.0000000E+00  0.0000000E+00  0.0000000E+00  0.0000000E+00  0.1000000E+01  0.3000000E+00  0.0000000E+00  0.0000000E+00
  0.1000000E+01  0.0000000E+00  0.0000000E+00  0.0000000E+00  0.0000000E+00  0.1000000E+01  0.3000000E+00  0.0000000E+00  0.0000000E+00
  0.0000000E+00  0.0000000E+00  0.1000000E+00  0.8870289E-01 -0.1129711E-01  0.9999999E+00  0.3000000E+00  0.1399881E-06  0.4199644E-07
  0.5000000E-01  0.0000000E+00  0.1000000E+00  0.8848022E-01 -0.1151978E-01  0.9999998E+00  0.3000000E+00  0.1534375E-06  0.4603125E-07
  0.1000000E+00  0.0000000E+00  0.1000000E+00  0.8781573E-01 -0.1218427E-01  0.9999998E+00  0.2999999E+00  0.1997108E-06  0.5991325E-07
  0.1500000E+00  0.0000000E+00  0.1000000E+00  0.8672045E-01 -0.1327955E-01  0.9999997E+00  0.2999999E+00  0.2993001E-06  0.8979002E-07
  0.2000000E+00  0.0000000E+00  0.1000000E+00  0.8521448E-01 -0.1478552E-01  0.9999995E+00  0.2999999E+00  0.4958804E-06  0.1487641E-06
  0.2500000E+00  0.0000000E+00  0.1000000E+00  0.8332980E-01 -0.1667020E-01  0.9999991E+00  0.2999997E+00  0.8714968E-06  0.2614490E-06
  0.3000000E+00  0.0000000E+00  0.1000000E+00  0.8111451E-01 -0.1888549E-01  0.9999984E+00  0.2999995E+00  0.1566559E-05  0.4699677E-06
  0.3500000E+00  0.0000000E+00  0.1000000E+00  0.7863890E-01 -0.2136110E-01  0.9999972E+00  0.2999992E+00  0.2794950E-05  0.8384849E-06
  0.4000000E+00  0.0000000E+00  0.1000000E+00  0.7600405E-01 -0.2399595E-01  0.9999952E+00  0.2999986E+00  0.4828251E-05  0.1448475E-05
  0.4500000E+00  0.0000000E+00  0.1000000E+00  0.7335361E-01 -0.2664639E-01  0.9999921E+00  0.2999976E+00  0.7900241E-05  0.2370072E-05
  0.5000000E+00  0.0000000E+00  0.1000000E+00  0.7088994E-01 -0.2911006E-01  0.9999880E+00  0.2999964E+00  0.1197126E-04  0.3591378E-05
  0.5500000E+00  0.0000000E+00  0.1000000E+00  0.6889621E-01 -0.3110379E-01  0.9999837E+00  0.2999951E+00  0.1634396E-04  0.4903188E-05
  0.6000000E+00  0.0000000E+00  0.1000000E+00  0.6728691E-01 -0.3271309E-01  0.9999793E+00  0.2999938E+00  0.2071683E-04  0.6215049E-05
  0.6500000E+00  0.0000000E+00  0.1000000E+00  0.6599417E-01 -0.3400583E-01  0.9999751E+00  0.2999925E+00  0.2485595E-04  0.7456785E-05
  0.7000000E+00  0.0000000E+00  0.1000000E+00  0.6496423E-01 -0.3503577E-01  0.9999714E+00  0.2999914E+00  0.2859777E-04  0.8579332E-05
  0.7500000E+00  0.0000000E+00  0.1000000E+00  0.6415475E-01 -0.3584525E-01  0.9999682E+00  0.2999904E+00  0.3183860E-04  0.9551579E-05
  0.8000000E+00  0.0000000E+00  0.1000000E+00  0.6353277E-01 -0.3646723E-01  0.9999655E+00  0.2999896E+00  0.3451966E-04  0.1035590E-04
  0.8500000E+00  0.0000000E+00  0.1000000E+00  0.6307315E-01 -0.3692685E-01  0.9999634E+00  0.2999890E+00  0.3661263E-04  0.1098379E-04
  0.9000000E+00  0.0000000E+00  0.1000000E+00  0.6275740E-01 -0.3724260E-01  0.9999619E+00  0.2999886E+00  0.3810742E-04  0.1143223E-04
  0.9500000E+00  0.0000000E+00  0.1000000E+00  0.6257285E-01 -0.3742715E-01  0.9999610E+00  0.2999883E+00  0.3900302E-04  0.1170091E-04
  0.1000000E+01  0.0000000E+00  0.1000000E+00  0.6251215E-01 -0.3748785E-01  0.9999607E+00  0.2999882E+00  0.3930123E-04  0.1179037E-04
  0.0000000E+00  0.0000000E+00  0.2000000E+00  0.1279536E+00 -0.7204638E-01  0.9991539E+00  0.2997462E+00  0.8460585E-03  0.2538176E-03
  0.5000000E-01  0.0000000E+00  0.2000000E+00  0.1278959E+00 -0.7210408E-01  0.9991508E+00  0.2997452E+00  0.8492436E-03  0.2547731E-03
  0.1000000E+00  0.0000000E+00  0.2000000E+00  0.1277247E+00 -0.7227529E-01  0.9991412E+00  0.2997424E+00  0.8587515E-03  0.2576255E-03
  0.1500000E+00  0.0000000E+00  0.2000000E+00  0.1274456E+00 -0.7255443E-01  0.9991256E+00  0.2997377E+00  0.8744322E-03  0.2623297E-03
  0.2000000E+00  0.0000000E+00  0.2000000E+00  0.1270679E+00 -0.7293214E-01  0.9991040E+00  0.2997312E+00  0.8960070E-03  0.2688021E-03
  0.2500000E+00  0.0000000E+00  0.2000000E+00  0.1266048E+00 -0.7339524E-01  0.9990770E+00  0.2997231E+00  0.9230276E-03  0.2769083E-03
  0.3000000E+00  0.0000000E+00  0.2000000E+00  0.1260732E+00 -0.7392679E-01  0.9990452E+00  0.2997136E+00  0.9548270E-03  0.2864481E-03
  0.3500000E+00  0.0000000E+00  0.2000000E+00  0.1254937E+00 -0.7450632E-01  0.9990095E+00  0.2997029E+00  0.9904705E-03  0.2971412E-03
  0.4000000E+00  0.0000000E+00  0.2000000E+00  0.1248896E+00 -0.7511038E-01  0.9989713E+00  0.2996914E+00  0.1028727E-02  0.3086182E-03
  0.4500000E+00  0.0000000E+00  0.2000000E+00  0.1242863E+00 -0.7571373E-01  0.9989319E+00  0.2996796E+00  0.1068088E-02  0.3204264E-03
  0.5000000E+00  0.0000000E+00  0.2000000E+00  0.1237086E+00 -0.7629143E-01  0.9988931E+00  0.2996679E+00  0.1106874E-02  0.3320622E-03
  0.5500000E+00  0.0000000E+00  0.2000000E+00  0.1231776E+00 -0.7682236E-01  0.9988565E+00  0.2996570E+00  0.1143488E-02  0.3430464E-03
  0.6000000E+00  0.0000000E+00  0.2000000E+00  0.1227050E+00 -0.7729502E-01  0.9988231E+00  0.2996469E+00  0.1176877E-02  0.3530632E-03
  0.6500000E+00  0.0000000E+00  0.2000000E+00  0.1222955E+00 -0.7770446E-01  0.9987936E+00  0.2996381E+00  0.1206415E-02  0.3619244E-03
  0.7000000E+00  0.0000000E+00  0.2000000E+00  0.1219500E+00 -0.7805000E-01  0.9987682E+00  0.2996305E+00  0.1231793E-02  0.3695380E-03
  0.7500000E+00  0.0000000E+00  0.2000000E+00  0.1216664E+00 -0.7833361E-01  0.9987471E+00  0.2996241E+00  0.1252934E-02  0.3758803E-03
  0.8000000E+00  0.0000000E+00  0.2000000E+00  0.1214414E+00 -0.7855857E-01  0.9987301E+00  0.2996190E+00  0.1269906E-02  0.3809717E-03
  0.8500000E+00  0.0000000E+00  0.2000000E+00  0.1212714E+00 -0.7872861E-01  0.9987171E+00  0.2996151E+00  0.1282853E-02  0.3848558E-03
  0.9000000E+00  0.0000000E+00  0.2000000E+00  0.1211528E+00 -0.7884722E-01  0.9987081E+00  0.2996124E+00  0.1291945E-02  0.3875836E-03
  0.9500000E+00  0.0000000E+00  0.2000000E+00  0.1210828E+00 -0.7891720E-01  0.9987027E+00  0.2996108E+00  0.1297333E-02  0.3891998E-03
  0.1000000E+01  0.0000000E+00  0.2000000E+00  0.1210597E+00 -0.7894031E-01  0.9987009E+00  0.2996103E+00  0.1299117E-02  0.3897350E-03
  0.0000000E+00  0.0000000E+00  0.3000000E+00  0.1753968E+00 -0.1246032E+00  0.9890519E+00  0.2967156E+00  0.1094805E-01  0.3284416E-02
  0.5000000E-01  0.0000000E+00  0.3000000E+00  0.1754308E+00 -0.1245692E+00  0.9890658E+00  0.2967197E+00  0.1093423E-01  0.3280269E-02
  0.1000000E+00  0.0000000E+00  0.3000000E+00  0.1755321E+00 -0.1244679E+00  0.9891069E+00  0.2967321E+00  0.1089313E-01  0.3267939E-02
  0.1500000E+00  0.0000000E+00  0.3000000E+00  0.1756987E+00 -0.1243013E+00  0.9891742E+00  0.2967522E+00  0.1082585E-01  0.3247755E-02
  0.2000000E+00  0.0000000E+00  0.3000000E+00  0.1759269E+00 -0.1240731E+00  0.9892658E+00  0.2967798E+00  0.1073416E-01  0.3220247E-02
  0.2500000E+00  0.0000000E+00  0.3000000E+00  0.1762120E+00 -0.1237880E+00  0.9893795E+00  0.2968139E+00  0.1062046E-01  0.3186138E-02
  0.3000000E+00  0.0000000E+00  0.3000000E+00  0.1765478E+00 -0.1234522E+00  0.9895123E+00  0.2968537E+00  0.1048772E-01  0.3146316E-02
  0.3500000E+00  0.0000000E+00  0.3000000E+00  0.1769271E+00 -0.1230729E+00  0.9896606E+00  0.2968982E+00  0.1033937E-01  0.3101812E-02
  0.4000000E+00  0.0000000E+00  0.3000000E+00  0.1773411E+00 -0.1226589E+00  0.9898207E+00  0.2969462E+00  0.1017925E-01  0.3053776E-02
  0.4500000E+00  0.0000000E+00  0.3000000E+00  0.1777803E+00 -0.1222197E+00  0.9899885E+00  0.2969966E+00  0.1001149E-01  0.3003446E-02
  0.5000000E+00  0.0000000E+00  0.3000000E+00  0.1782341E+00 -0.1217659E+00  0.9901596E+00  0.2970479E+00  0.9840398E-02  0.2952119E-02
  0.5500000E+00  0.0000000E+00  0.3000000E+00  0.1786911E+00 -0.1213089E+00  0.9903296E+00  0.2970989E+00  0.9670384E-02  0.2901115E-02
  0.6000000E+00  0.0000000E+00  0.3000000E+00  0.1791394E+00 -0.1208606E+00  0.9904942E+00  0.2971483E+00  0.9505793E-02  0.2851738E-02
  0.6500000E+00  0.0000000E+00  0.3000000E+00  0.1795673E+00 -0.1204327E+00  0.9906493E+00  0.2971948E+00  0.9350737E-02  0.2805221E-02
  0.7000000E+00  0.0000000E+00  0.3000000E+00  0.1799634E+00 -0.1200366E+00  0.9907911E+00  0.2972373E+00  0.9208946E-02  0.2762684E-02
  0.7500000E+00  0.0000000E+00  0.3000000E+00  0.1803173E+00 -0.1196827E+00  0.9909163E+00  0.2972749E+00  0.9083664E-02  0.2725099E-02
  0.8000000E+00  0.0000000E+00  0.3000000E+00  0.1806199E+00 -0.1193801E+00  0.9910224E+00  0.2973067E+00  0.8977605E-02  0.2693282E-02
  0.8500000E+00  0.0000000E+00  0.3000000E+00  0.1808634E+00 -0.1191366E+00  0.9911071E+00  0.2973321E+00  0.8892941E-02  0.2667882E-02
  0.9000000E+00  0.0000000E+00  0.3000000E+00  0.1810417E+00 -0.1189583E+00  0.9911687E+00  0.2973506E+00  0.8831320E-02  0.2649396E-02
  0.9500000E+00  0.0000000E+00  0.3000000E+00  0.1811505E+00 -0.1188495E+00  0.9912061E+00  0.2973618E+00  0.8793894E-02  0.2638168E-02
  0.1000000E+01  0.0000000E+00  0.3000000E+00  0.1811871E+00 -0.1188129E+00  0.9912187E+00  0.2973656E+00  0.8781343E-02  0.2634403E-02
  0.0000000E+00  0.0000000E+00  0.4000000E+00  0.2297725E+00 -0.1702275E+00  0.9548840E+00  0.2864652E+00  0.4511604E-01  0.1353481E-01
  0.5000000E-01  0.0000000E+00  0.4000000E+00  0.2299102E+00 -0.1700898E+00  0.9550444E+00  0.2865133E+00  0.4495563E-01  0.1348669E-01
  0.1000000E+00  0.0000000E+00  0.4000000E+00  0.2303194E+00 -0.1696806E+00  0.9555187E+00  0.2866556E+00  0.4448133E-01  0.1334440E-01
  0.1500000E+00  0.0000000E+00  0.4000000E+00  0.2309892E+00 -0.1690108E+00  0.9562874E+00  0.2868862E+00  0.4371265E-01  0.1311379E-01
  0.2000000E+00  0.0000000E+00  0.4000000E+00  0.2319020E+00 -0.1680980E+00  0.9573198E+00  0.2871959E+00  0.4268022E-01  0.1280407E-01
  0.2500000E+00  0.0000000E+00  0.4000000E+00  0.2330342E+00 -0.1669658E+00  0.9585760E+00  0.2875728E+00  0.4142400E-01  0.1242720E-01
  0.3000000E+00  0.0000000E+00  0.4000000E+00  0.2343559E+00 -0.1656441E+00  0.9600091E+00  0.2880027E+00  0.3999094E-01  0.1199728E-01
  0.3500000E+00  0.0000000E+00  0.4000000E+00  0.2358323E+00 -0.1641677E+00  0.9615675E+00  0.2884702E+00  0.3843255E-01  0.1152976E-01
  0.4000000E+00  0.0000000E+00  0.4000000E+00  0.2374235E+00 -0.1625765E+00  0.9631977E+00  0.2889593E+00  0.3680232E-01  0.1104070E-01
  0.4500000E+00  0.0000000E+00  0.4000000E+00  0.2390856E+00 -0.1609144E+00  0.9648468E+00  0.2894540E+00  0.3515324E-01  0.1054597E-01
  0.5000000E+00  0.0000000E+00  0.4000000E+00  0.2407721E+00 -0.1592279E+00  0.9664646E+00  0.2899394E+00  0.3353542E-01  0.1006063E-01
  0.5500000E+00  0.0000000E+00  0.4000000E+00  0.2424350E+00 -0.1575650E+00  0.9680062E+00  0.2904019E+00  0.3199383E-01  0.9598148E-02
  0.6000000E+00  0.0000000E+00  0.4000000E+00  0.2440283E+00 -0.1559717E+00  0.9694340E+00  0.2908302E+00  0.3056601E-01  0.9169804E-02
  0.6500000E+00  0.0000000E+00  0.4000000E+00  0.2455113E+00 -0.1544887E+00  0.9707206E+00  0.2912162E+00  0.2927942E-01  0.8783826E-02
  0.7000000E+00  0.0000000E+00  0.4000000E+00  0.2468509E+00 -0.1531491E+00  0.9718481E+00  0.2915544E+00  0.2815192E-01  0.8445577E-02
  0.7500000E+00  0.0000000E+00  0.4000000E+00  0.2480207E+00 -0.1519793E+00  0.9728063E+00  0.2918419E+00  0.2719374E-01  0.8158121E-02
  0.8000000E+00  0.0000000E+00  0.4000000E+00  0.2490009E+00 -0.1509991E+00  0.9735904E+00  0.2920771E+00  0.2640965E-01  0.7922894E-02
  0.8500000E+00  0.0000000E+00  0.4000000E+00  0.2497767E+00 -0.1502233E+00  0.9741990E+00  0.2922597E+00  0.2580102E-01  0.7740307E-02
  0.9000000E+00  0.0000000E+00  0.4000000E+00  0.2503377E+00 -0.1496623E+00  0.9746326E+00  0.2923898E+00  0.2536743E-01  0.7610230E-02
  0.9500000E+00  0.0000000E+00  0.4000000E+00  0.2506770E+00 -0.1493230E+00  0.9748922E+00  0.2924676E+00  0.2510784E-01  0.7532352E-02
  0.1000000E+01  0.0000000E+00  0.4000000E+00  0.2507905E+00 -0.1492095E+00  0.9749786E+00  0.2924936E+00  0.2502139E-01  0.7506418E-02
  0.0000000E+00  0.0000000E+00  0.5000000E+00  0.2893887E+00 -0.2106113E+00  0.8893663E+00  0.2668099E+00  0.1106337E+00  0.3319010E-01
  0.5000000E-01  0.0000000E+00  0.5000000E+00  0.2897020E+00 -0.2102980E+00  0.8900187E+00  0.2670056E+00  0.1099813E+00  0.3299438E-01
  0.1000000E+00  0.0000000E+00  0.5000000E+00  0.2906308E+00 -0.2093692E+00  0.8919403E+00  0.2675821E+00  0.1080597E+00  0.3241792E-01
  0.1500000E+00  0.0000000E+00  0.5000000E+00  0.2921487E+00 -0.2078513E+00  0.8950389E+00  0.2685117E+00  0.1049611E+00  0.3148833E-01
  0.2000000E+00  0.0000000E+00  0.5000000E+00  0.2942165E+00 -0.2057835E+00  0.8991760E+00  0.2697528E+00  0.1008240E+00  0.3024720E-01
  0.2500000E+00  0.0000000E+00  0.5000000E+00  0.2967834E+00 -0.2032166E+00  0.9041757E+00  0.2712527E+00  0.9582426E-01  0.2874728E-01
  0.3000000E+00  0.0000000E+00  0.5000000E+00  0.2997881E+00 -0.2002119E+00  0.9098351E+00  0.2729505E+00  0.9016493E-01  0.2704948E-01
  0.3500000E+00  0.0000000E+00  0.5000000E+00  0.3031586E+00 -0.1968414E+00  0.9159336E+00  0.2747801E+00  0.8406643E-01  0.2521993E-01
  0.4000000E+00  0.0000000E+00  0.5000000E+00  0.3068105E+00 -0.1931895E+00  0.9222423E+00  0.2766727E+00  0.7775770E-01  0.2332731E-01
  0.4500000E+00  0.0000000E+00  0.5000000E+00  0.3106446E+00 -0.1893554E+00  0.9285308E+00  0.2785592E+00  0.7146917E-01  0.2144075E-01
  0.5000000E+00  0.0000000E+00  0.5000000E+00  0.3145410E+00 -0.1854590E+00  0.9345717E+00  0.2803715E+00  0.6542829E-01  0.1962849E-01
  0.5500000E+00  0.0000000E+00  0.5000000E+00  0.3183513E+00 -0.1816487E+00  0.9401410E+00  0.2820423E+00  0.5985899E-01  0.1795770E-01
  0.6000000E+00  0.0000000E+00  0.5000000E+00  0.3218861E+00 -0.1781139E+00  0.9450127E+00  0.2835038E+00  0.5498733E-01  0.1649620E-01
  0.6500000E+00  0.0000000E+00  0.5000000E+00  0.3250475E+00 -0.1749525E+00  0.9491331E+00  0.2847399E+00  0.5086685E-01  0.1526006E-01
  0.7000000E+00  0.0000000E+00  0.5000000E+00  0.3277909E+00 -0.1722091E+00  0.9525308E+00  0.2857593E+00  0.4746916E-01  0.1424075E-01
  0.7500000E+00  0.0000000E+00  0.5000000E+00  0.3301007E+00 -0.1698993E+00  0.9552656E+00  0.2865797E+00  0.4473440E-01  0.1342032E-01
  0.8000000E+00  0.0000000E+00  0.5000000E+00  0.3319763E+00 -0.1680237E+00  0.9574030E+00  0.2872209E+00  0.4259698E-01  0.1277910E-01
  0.8500000E+00  0.0000000E+00  0.5000000E+00  0.3334238E+00 -0.1665762E+00  0.9590022E+00  0.2877007E+00  0.4099778E-01  0.1229933E-01
  0.9000000E+00  0.0000000E+00  0.5000000E+00  0.3344510E+00 -0.1655490E+00  0.9601107E+00  0.2880332E+00  0.3988927E-01  0.1196678E-01
  0.9500000E+00  0.0000000E+00  0.5000000E+00  0.3350645E+00 -0.1649355E+00  0.9607626E+00  0.2882288E+00  0.3923743E-01  0.1177123E-01
  0.1000000E+01  0.0000000E+00  0.5000000E+00  0.3352687E+00 -0.1647313E+00  0.9609778E+00  0.2882933E+00  0.3902223E-01  0.1170667E-01
  0.0000000E+00  0.0000000E+00  0.6000000E+00  0.3457654E+00 -0.2542346E+00  0.7801255E+00  0.2340377E+00  0.2198745E+00  0.6596234E-01
  0.5000000E-01  0.0000000E+00  0.6000000E+00  0.3463586E+00 -0.2536414E+00  0.7818025E+00  0.2345407E+00  0.2181975E+00  0.6545926E-01
  0.1000000E+00  0.0000000E+00  0.6000000E+00  0.3481091E+00 -0.2518909E+00  0.7867299E+00  0.2360190E+00  0.2132701E+00  0.6398103E-01
  0.1500000E+00  0.0000000E+00  0.6000000E+00  0.3509630E+00 -0.2490370E+00  0.7946915E+00  0.2384074E+00  0.2053085E+00  0.6159256E-01
  0.2000000E+00  0.0000000E+00  0.6000000E+00  0.3548557E+00 -0.2451443E+00  0.8053943E+00  0.2416183E+00  0.1946057E+00  0.5838172E-01
  0.2500000E+00  0.0000000E+00  0.6000000E+00  0.3597220E+00 -0.2402780E+00  0.8184880E+00  0.2455464E+00  0.1815120E+00  0.5445360E-01
  0.3000000E+00  0.0000000E+00  0.6000000E+00  0.3655038E+00 -0.2344962E+00  0.8335805E+00  0.2500742E+00  0.1664195E+00  0.4992585E-01
  0.3500000E+00  0.0000000E+00  0.6000000E+00  0.3721580E+00 -0.2278420E+00  0.8502481E+00  0.2550744E+00  0.1497519E+00  0.4492558E-01
  0.4000000E+00  0.0000000E+00  0.6000000E+00  0.3796620E+00 -0.2203380E+00  0.8680413E+00  0.2604124E+00  0.1319587E+00  0.3958761E-01
  0.4500000E+00  0.0000000E+00  0.6000000E+00  0.3880187E+00 -0.2119813E+00  0.8864871E+00  0.2659461E+00  0.1135129E+00  0.3405387E-01
  0.5000000E+00  0.0000000E+00  0.6000000E+00  0.3972608E+00 -0.2027392E+00  0.9050889E+00  0.2715267E+00  0.9491110E-01  0.2847333E-01
  0.5500000E+00  0.0000000E+00  0.6000000E+00  0.4074573E+00 -0.1925427E+00  0.9233272E+00  0.2769981E+00  0.7667285E-01  0.2300185E-01
  0.6000000E+00  0.0000000E+00  0.6000000E+00  0.4149923E+00 -0.1850077E+00  0.9352487E+00  0.2805746E+00  0.6475126E-01  0.1942538E-01
  0.6500000E+00  0.0000000E+00  0.6000000E+00  0.4206968E+00 -0.1793032E+00  0.9434049E+00  0.2830215E+00  0.5659508E-01  0.1697852E-01
  0.7000000E+00  0.0000000E+00  0.6000000E+00  0.4250662E+00 -0.1749338E+00  0.9491568E+00  0.2847470E+00  0.5084322E-01  0.1525297E-01
  0.7500000E+00  0.0000000E+00  0.6000000E+00  0.4284143E+00 -0.1715857E+00  0.9532803E+00  0.2859841E+00  0.4671972E-01  0.1401592E-01
  0.8000000E+00  0.0000000E+00  0.6000000E+00  0.4309474E+00 -0.1690526E+00  0.9562397E+00  0.2868719E+00  0.4376027E-01  0.1312808E-01
  0.8500000E+00  0.0000000E+00  0.6000000E+00  0.4328030E+00 -0.1671970E+00  0.9583217E+00  0.2874965E+00  0.4167832E-01  0.1250350E-01
  0.9000000E+00  0.0000000E+00  0.6000000E+00  0.4340723E+00 -0.1659277E+00  0.9597045E+00  0.2879114E+00  0.4029545E-01  0.1208864E-01
  0.9500000E+00  0.0000000E+00  0.6000000E+00  0.4348129E+00 -0.1651871E+00  0.9604962E+00  0.2881489E+00  0.3950380E-01  0.1185114E-01
  0.1000000E+01  0.0000000E+00  0.6000000E+00  0.4350566E+00 -0.1649434E+00  0.9607542E+00  0.2882263E+00  0.3924578E-01  0.1177373E-01
  0.0000000E+00  0.0000000E+00  0.7000000E+00  0.6807117E+00 -0.1928832E-01  0.9999983E+00  0.2999995E+00  0.1729926E-05  0.5189777E-06
  0.5000000E-01  0.0000000E+00  0.7000000E+00  0.6807193E+00 -0.1928068E-01  0.9999983E+00  0.2999995E+00  0.1726708E-05  0.5180125E-06
  0.1000000E+00  0.0000000E+00  0.7000000E+00  0.6807421E+00 -0.1925793E-01  0.9999983E+00  0.2999995E+00  0.1717153E-05  0.5151458E-06
  0.1500000E+00  0.0000000E+00  0.7000000E+00  0.6807797E+00 -0.1922025E-01  0.9999983E+00  0.2999995E+00  0.1701419E-05  0.5104256E-06
  0.2000000E+00  0.0000000E+00  0.7000000E+00  0.6808323E+00 -0.1916774E-01  0.9999983E+00  0.2999995E+00  0.1679681E-05  0.5039042E-06
  0.2500000E+00  0.0000000E+00  0.7000000E+00  0.6808997E+00 -0.1910035E-01  0.9999983E+00  0.2999995E+00  0.1652105E-05  0.4956314E-06
  0.3000000E+00  0.0000000E+00  0.7000000E+00  0.6809821E+00 -0.1901789E-01  0.9999984E+00  0.2999995E+00  0.1618849E-05  0.4856547E-06
  0.3500000E+00  0.0000000E+00  0.7000000E+00  0.6810797E+00 -0.1892027E-01  0.9999984E+00  0.2999995E+00  0.1580163E-05  0.4740490E-06
  0.4000000E+00  0.0000000E+00  0.7000000E+00  0.6811886E+00 -0.1881138E-01  0.9999985E+00  0.2999995E+00  0.1537876E-05  0.4613629E-06
  0.4500000E+00  0.0000000E+00  0.7000000E+00  0.6811778E+00 -0.1882222E-01  0.9999985E+00  0.2999995E+00  0.1542044E-05  0.4626132E-06
  0.5000000E+00  0.0000000E+00  0.7000000E+00  0.6763650E+00 -0.2363499E-01  0.9999955E+00  0.2999987E+00  0.4496270E-05  0.1348881E-05
  0.5500000E+00  0.0000000E+00  0.7000000E+00  0.5427084E+00 -0.1572916E+00  0.9682546E+00  0.2904764E+00  0.3174541E-01  0.9523624E-02
  0.6000000E+00  0.0000000E+00  0.7000000E+00  0.5430503E+00 -0.1569497E+00  0.9685632E+00  0.2905690E+00  0.3143677E-01  0.9431032E-02
  0.6500000E+00  0.0000000E+00  0.7000000E+00  0.5435668E+00 -0.1564332E+00  0.9690254E+00  0.2907076E+00  0.3097464E-01  0.9292391E-02
  0.7000000E+00  0.0000000E+00  0.7000000E+00  0.5441476E+00 -0.1558524E+00  0.9695391E+00  0.2908617E+00  0.3046094E-01  0.9138282E-02
  0.7500000E+00  0.0000000E+00  0.7000000E+00  0.5447197E+00 -0.1552803E+00  0.9700389E+00  0.2910117E+00  0.2996115E-01  0.8988344E-02
  0.8000000E+00  0.0000000E+00  0.7000000E+00  0.5452345E+00 -0.1547655E+00  0.9704836E+00  0.2911451E+00  0.2951644E-01  0.8854933E-02
  0.8500000E+00  0.0000000E+00  0.7000000E+00  0.5456605E+00 -0.1543395E+00  0.9708478E+00  0.2912543E+00  0.2915221E-01  0.8745663E-02
  0.9000000E+00  0.0000000E+00  0.7000000E+00  0.5459771E+00 -0.1540229E+00  0.9711163E+00  0.2913349E+00  0.2888368E-01  0.8665103E-02
  0.9500000E+00  0.0000000E+00  0.7000000E+00  0.5461716E+00 -0.1538284E+00  0.9712804E+00  0.2913841E+00  0.2871959E-01  0.8615876E-02
  0.1000000E+01  0.0000000E+00  0.7000000E+00  0.5462372E+00 -0.1537628E+00  0.9713356E+00  0.2914007E+00  0.2866442E-01  0.8599327E-02
  0.0000000E+00  0.0000000E+00  0.8000000E+00  0.7925166E+00 -0.7483435E-02  0.1000000E+01  0.3000000E+00  0.2020316E-07  0.6060948E-08
  0.5000000E-01  0.0000000E+00  0.8000000E+00  0.7925119E+00 -0.7488106E-02  0.1000000E+01  0.3000000E+00  0.2026250E-07  0.6078749E-08
  0.1000000E+00  0.0000000E+00  0.8000000E+00  0.7924975E+00 -0.7502496E-02  0.1000000E+01  0.3000000E+00  0.2044617E-07  0.6133851E-08
  0.1500000E+00  0.0000000E+00  0.8000000E+00  0.7924720E+00 -0.7527991E-02  0.1000000E+01  0.3000000E+00  0.2077478E-07  0.6232434E-08
  0.2000000E+00  0.0000000E+00  0.8000000E+00  0.7924319E+00 -0.7568096E-02  0.1000000E+01  0.3000000E+00  0.2130012E-07  0.6390035E-08
  0.2500000E+00  0.0000000E+00  0.8000000E+00  0.7923681E+00 -0.7631917E-02  0.1000000E+01  0.3000000E+00  0.2215760E-07  0.6647281E-08
  0.3000000E+00  0.0000000E+00  0.8000000E+00  0.7922548E+00 -0.7745151E-02  0.1000000E+01  0.3000000E+00  0.2374571E-07  0.7123713E-08
  0.3500000E+00  0.0000000E+00  0.8000000E+00  0.7920129E+00 -0.7987148E-02  0.1000000E+01  0.3000000E+00  0.2744011E-07  0.8232032E-08
  0.4000000E+00  0.0000000E+00  0.8000000E+00  0.7913718E+00 -0.8628217E-02  0.1000000E+01  0.3000000E+00  0.3944334E-07  0.1183300E-07
  0.4500000E+00  0.0000000E+00  0.8000000E+00  0.7892470E+00 -0.1075299E-01  0.9999999E+00  0.3000000E+00  0.1110021E-06  0.3330063E-07
  0.5000000E+00  0.0000000E+00  0.8000000E+00  0.7788609E+00 -0.2113914E-01  0.9999973E+00  0.2999992E+00  0.2661052E-05  0.7983157E-06
  0.5500000E+00  0.0000000E+00  0.8000000E+00  0.6560056E+00 -0.1439944E+00  0.9787153E+00  0.2936146E+00  0.2128465E-01  0.6385396E-02
  0.6000000E+00  0.0000000E+00  0.8000000E+00  0.6560392E+00 -0.1439608E+00  0.9787380E+00  0.2936214E+00  0.2126205E-01  0.6378614E-02
  0.6500000E+00  0.0000000E+00  0.8000000E+00  0.6560997E+00 -0.1439003E+00  0.9787787E+00  0.2936336E+00  0.2122132E-01  0.6366397E-02
  0.7000000E+00  0.0000000E+00  0.8000000E+00  0.6561778E+00 -0.1438222E+00  0.9788311E+00  0.2936493E+00  0.2116889E-01  0.6350667E-02
  0.7500000E+00  0.0000000E+00  0.8000000E+00  0.6562634E+00 -0.1437366E+00  0.9788885E+00  0.2936665E+00  0.2111153E-01  0.6333458E-02
  0.8000000E+00  0.0000000E+00  0.8000000E+00  0.6563471E+00 -0.1436529E+00  0.9789445E+00  0.2936833E+00  0.2105554E-01  0.6316662E-02
  0.8500000E+00  0.0000000E+00  0.8000000E+00  0.6564208E+00 -0.1435792E+00  0.9789937E+00  0.2936981E+00  0.2100631E-01  0.6301894E-02
  0.9000000E+00  0.0000000E+00  0.8000000E+00  0.6564781E+00 -0.1435219E+00  0.9790319E+00  0.2937096E+00  0.2096810E-01  0.6290431E-02
  0.9500000E+00  0.0000000E+00  0.8000000E+00  0.6565143E+00 -0.1434857E+00  0.9790560E+00  0.2937168E+00  0.2094396E-01  0.6283187E-02
  0.1000000E+01  0.0000000E+00  0.8000000E+00  0.6565267E+00 -0.1434733E+00  0.9790643E+00  0.2937193E+00  0.2093571E-01  0.6280712E-02
  0.0000000E+00  0.0000000E+00  0.9000000E+00  0.8952537E+00 -0.4746319E-02  0.1000000E+01  0.3000000E+00  0.2376962E-08  0.7130885E-09
  0.5000000E-01  0.0000000E+00  0.9000000E+00  0.8952424E+00 -0.4757649E-02  0.1000000E+01  0.3000000E+00  0.2403750E-08  0.7211249E-09
  0.1000000E+00  0.0000000E+00  0.9000000E+00  0.8952065E+00 -0.4793517E-02  0.1000000E+01  0.3000000E+00  0.2490118E-08  0.7470355E-09
  0.1500000E+00  0.0000000E+00  0.9000000E+00  0.8951396E+00 -0.4860393E-02  0.1000000E+01  0.3000000E+00  0.2657664E-08  0.7972992E-09
  0.2000000E+00  0.0000000E+00  0.9000000E+00  0.8950276E+00 -0.4972374E-02  0.1000000E+01  0.3000000E+00  0.2957974E-08  0.8873923E-09
  0.2500000E+00  0.0000000E+00  0.9000000E+00  0.8948417E+00 -0.5158340E-02  0.1000000E+01  0.3000000E+00  0.3515133E-08  0.1054540E-08
  0.3000000E+00  0.0000000E+00  0.9000000E+00  0.8945215E+00 -0.5478476E-02  0.1000000E+01  0.3000000E+00  0.4664937E-08  0.1399481E-08
  0.3500000E+00  0.0000000E+00  0.9000000E+00  0.8939345E+00 -0.6065538E-02  0.1000000E+01  0.3000000E+00  0.7527149E-08  0.2258145E-08
  0.4000000E+00  0.0000000E+00  0.9000000E+00  0.8927524E+00 -0.7247597E-02  0.1000000E+01  0.3000000E+00  0.1738027E-07  0.5214082E-08
  0.4500000E+00  0.0000000E+00  0.9000000E+00  0.8899341E+00 -0.1006585E-01  0.9999999E+00  0.3000000E+00  0.8138469E-07  0.2441541E-07
  0.5000000E+00  0.0000000E+00  0.9000000E+00  0.8793591E+00 -0.2064092E-01  0.9999976E+00  0.2999993E+00  0.2378867E-05  0.7136600E-06
  0.5500000E+00  0.0000000E+00  0.9000000E+00  0.7638807E+00 -0.1361193E+00  0.9835443E+00  0.2950633E+00  0.1645572E-01  0.4936717E-02
  0.6000000E+00  0.0000000E+00  0.9000000E+00  0.7638851E+00 -0.1361149E+00  0.9835467E+00  0.2950640E+00  0.1645327E-01  0.4935980E-02
  0.6500000E+00  0.0000000E+00  0.9000000E+00  0.7638934E+00 -0.1361066E+00  0.9835513E+00  0.2950654E+00  0.1644868E-01  0.4934603E-02
  0.7000000E+00  0.0000000E+00  0.9000000E+00  0.7639045E+00 -0.1360955E+00  0.9835575E+00  0.2950672E+00  0.1644252E-01  0.4932756E-02
  0.7500000E+00  0.0000000E+00  0.9000000E+00  0.7639171E+00 -0.1360829E+00  0.9835645E+00  0.2950693E+00  0.1643552E-01  0.4930657E-02
  0.8000000E+00  0.0000000E+00  0.9000000E+00  0.7639298E+00 -0.1360702E+00  0.9835715E+00  0.2950715E+00  0.1642846E-01  0.4928537E-02
  0.8500000E+00  0.0000000E+00  0.9000000E+00  0.7639413E+00 -0.1360587E+00  0.9835779E+00  0.2950734E+00  0.1642207E-01  0.4926621E-02
  0.9000000E+00  0.0000000E+00  0.9000000E+00  0.7639505E+00 -0.1360495E+00  0.9835830E+00  0.2950749E+00  0.1641701E-01  0.4925102E-02
  0.9500000E+00  0.0000000E+00  0.9000000E+00  0.7639563E+00 -0.1360437E+00  0.9835862E+00  0.2950759E+00  0.1641376E-01  0.4924128E-02
  0.1000000E+01  0.0000000E+00  0.9000000E+00  0.7639584E+00 -0.1360416E+00  0.9835874E+00  0.2950762E+00  0.1641264E-01  0.4923793E-02
  0.0000000E+00  0.0000000E+00  0.1000000E+01  0.9963567E+00 -0.3643310E-02  0.1000000E+01  0.3000000E+00  0.6857672E-09  0.2057302E-09
  0.5000000E-01  0.0000000E+00  0.1000000E+01  0.9963393E+00 -0.3660729E-02  0.1000000E+01  0.3000000E+00  0.7013139E-09  0.2103942E-09
  0.1000000E+00  0.0000000E+00  0.1000000E+01  0.9962842E+00 -0.3715790E-02  0.1000000E+01  0.3000000E+00  0.7522900E-09  0.2256870E-09
  0.1500000E+00  0.0000000E+00  0.1000000E+01  0.9961821E+00 -0.3817858E-02  0.1000000E+01  0.3000000E+00  0.8544712E-09  0.2563413E-09
  0.2000000E+00  0.0000000E+00  0.1000000E+01  0.9960139E+00 -0.3986100E-02  0.1000000E+01  0.3000000E+00  0.1046457E-08  0.3139370E-09
  0.2500000E+00  0.0000000E+00  0.1000000E+01  0.9957435E+00 -0.4256544E-02  0.1000000E+01  0.3000000E+00  0.1424667E-08  0.4274002E-09
  0.3000000E+00  0.0000000E+00  0.1000000E+01  0.9953028E+00 -0.4697204E-02  0.1000000E+01  0.3000000E+00  0.2263551E-08  0.6790653E-09