title = "dataset hom_2d"
variables = "x", "y", "z","h+1","co3-2"
zone t = "T_j, T =  4.000E+00 days", i =   21, j =   41, k =    1,  f=point
  0.0000000E+00  0.0000000E+00  0.0000000E+00  0.2000000E-01  0.1000000E-01
  0.5000000E-02  0.0000000E+00  0.0000000E+00  0.2000000E-01  0.1000000E-01
  0.1000000E-01  0.0000000E+00  0.0000000E+00  0.2000000E-01  0.1000000E-01
  0.1500000E-01  0.0000000E+00  0.0000000E+00  0.2000000E-01  0.1000000E-01
  0.2000000E-01  0.0000000E+00  0.0000000E+00  0.2000000E-01  0.1000000E-01
  0.2500000E-01  0.0000000E+00  0.0000000E+00  0.2000000E-06  0.1000000E-06
  0.3000000E-01  0.0000000E+00  0.0000000E+00  0.2000000E-06  0.1000000E-06
  0.3500000E-01  0.0000000E+00  0.0000000E+00  0.2000000E-06  0.1000000E-06
  0.4000000E-01  0.0000000E+00  0.0000000E+00  0.2000000E-06  0.1000000E-06
  0.4500000E-01  0.0000000E+00  0.0000000E+00  0.2000000E-06  0.1000000E-06
  0.5000000E-01  0.0000000E+00  0.0000000E+00  0.2000000E-06  0.1000000E-06
  0.5500000E-01  0.0000000E+00  0.0000000E+00  0.2000000E-06  0.1000000E-06
  0.6000000E-01  0.0000000E+00  0.0000000E+00  0.2000000E-06  0.1000000E-06
  0.6500000E-01  0.0000000E+00  0.0000000E+00  0.2000000E-06  0.1000000E-06
  0.7000000E-01  0.0000000E+00  0.0000000E+00  0.2000000E-06  0.1000000E-06
  0.7500000E-01  0.0000000E+00  0.0000000E+00  0.2000000E-06  0.1000000E-06
  0.8000000E-01  0.0000000E+00  0.0000000E+00  0.2000000E-06  0.1000000E-06
  0.8500000E-01  0.0000000E+00  0.0000000E+00  0.2000000E-06  0.1000000E-06
  0.9000000E-01  0.0000000E+00  0.0000000E+00  0.2000000E-06  0.1000000E-06
  0.9500000E-01  0.0000000E+00  0.0000000E+00  0.2000000E-06  0.1000000E-06
  0.1000000E+00  0.0000000E+00  0.0000000E+00  0.2000000E-06  0.1000000E-06
  0.0000000E+00  0.0000000E+00  0.5000000E-02  0.1999023E-01  0.9995116E-02
  0.5000000E-02  0.0000000E+00  0.5000000E-02  0.1998989E-01  0.9994943E-02
  0.1000000E-01  0.0000000E+00  0.5000000E-02  0.1999011E-01  0.9995057E-02
  0.1500000E-01  0.0000000E+00  0.5000000E-02  0.1997576E-01  0.9987878E-02
  0.2000000E-01  0.0000000E+00  0.5000000E-02  0.1954094E-01  0.9770469E-02
  0.2500000E-01  0.0000000E+00  0.5000000E-02  0.4493310E-03  0.2246655E-03
  0.3000000E-01  0.0000000E+00  0.5000000E-02  0.1473465E-04  0.7367325E-05
  0.3500000E-01  0.0000000E+00  0.5000000E-02  0.7841081E-06  0.3920541E-06
  0.4000000E-01  0.0000000E+00  0.5000000E-02  0.2257570E-06  0.1128785E-06
  0.4500000E-01  0.0000000E+00  0.5000000E-02  0.2011558E-06  0.1005779E-06
  0.5000000E-01  0.0000000E+00  0.5000000E-02  0.2000510E-06  0.1000255E-06
  0.5500000E-01  0.0000000E+00  0.5000000E-02  0.2000020E-06  0.1000010E-06
  0.6000000E-01  0.0000000E+00  0.5000000E-02  0.1999995E-06  0.9999974E-07
  0.6500000E-01  0.0000000E+00  0.5000000E-02  0.1999995E-06  0.9999973E-07
  0.7000000E-01  0.0000000E+00  0.5000000E-02  0.2000005E-06  0.1000002E-06
  0.7500000E-01  0.0000000E+00  0.5000000E-02  0.2000010E-06  0.1000005E-06
  0.8000000E-01  0.0000000E+00  0.5000000E-02  0.1999987E-06  0.9999935E-07
  0.8500000E-01  0.0000000E+00  0.5000000E-02  0.1999959E-06  0.9999795E-07
  0.9000000E-01  0.0000000E+00  0.5000000E-02  0.1999981E-06  0.9999906E-07
  0.9500000E-01  0.0000000E+00  0.5000000E-02  0.2000008E-06  0.1000003E-06
  0.1000000E+00  0.0000000E+00  0.5000000E-02  0.1999953E-06  0.9999765E-07
  0.0000000E+00  0.0000000E+00  0.1000000E-01  0.1996819E-01  0.9984095E-02
  0.5000000E-02  0.0000000E+00  0.1000000E-01  0.1996660E-01  0.9983300E-02
  0.1000000E-01  0.0000000E+00  0.1000000E-01  0.1996652E-01  0.9983261E-02
  0.1500000E-01  0.0000000E+00  0.1000000E-01  0.1993059E-01  0.9965294E-02
  0.2000000E-01  0.0000000E+00  0.1000000E-01  0.1910238E-01  0.9551190E-02
  0.2500000E-01  0.0000000E+00  0.1000000E-01  0.8655250E-03  0.4327625E-03
  0.3000000E-01  0.0000000E+00  0.1000000E-01  0.3755396E-04  0.1877698E-04
  0.3500000E-01  0.0000000E+00  0.1000000E-01  0.1894666E-05  0.9473330E-06
  0.4000000E-01  0.0000000E+00  0.1000000E-01  0.2788101E-06  0.1394051E-06
  0.4500000E-01  0.0000000E+00  0.1000000E-01  0.2036292E-06  0.1018146E-06
  0.5000000E-01  0.0000000E+00  0.1000000E-01  0.2001624E-06  0.1000812E-06
  0.5500000E-01  0.0000000E+00  0.1000000E-01  0.2000070E-06  0.1000035E-06
  0.6000000E-01  0.0000000E+00  0.1000000E-01  0.1999982E-06  0.9999911E-07
  0.6500000E-01  0.0000000E+00  0.1000000E-01  0.1999954E-06  0.9999769E-07
  0.7000000E-01  0.0000000E+00  0.1000000E-01  0.1999966E-06  0.9999830E-07
  0.7500000E-01  0.0000000E+00  0.1000000E-01  0.2000021E-06  0.1000010E-06
  0.8000000E-01  0.0000000E+00  0.1000000E-01  0.2000021E-06  0.1000010E-06
  0.8500000E-01  0.0000000E+00  0.1000000E-01  0.1999925E-06  0.9999626E-07
  0.9000000E-01  0.0000000E+00  0.1000000E-01  0.1999918E-06  0.9999592E-07
  0.9500000E-01  0.0000000E+00  0.1000000E-01  0.2000020E-06  0.1000010E-06
  0.1000000E+00  0.0000000E+00  0.1000000E-01  0.1999989E-06  0.9999945E-07
  0.0000000E+00  0.0000000E+00  0.1500000E-01  0.1992483E-01  0.9962414E-02
  0.5000000E-02  0.0000000E+00  0.1500000E-01  0.1992221E-01  0.9961104E-02
  0.1000000E-01  0.0000000E+00  0.1500000E-01  0.1992043E-01  0.9960216E-02
  0.1500000E-01  0.0000000E+00  0.1500000E-01  0.1985658E-01  0.9928288E-02
  0.2000000E-01  0.0000000E+00  0.1500000E-01  0.1867460E-01  0.9337302E-02
  0.2500000E-01  0.0000000E+00  0.1500000E-01  0.1248728E-02  0.6243638E-03
  0.3000000E-01  0.0000000E+00  0.1500000E-01  0.6720341E-04  0.3360171E-04
  0.3500000E-01  0.0000000E+00  0.1500000E-01  0.3615062E-05  0.1807531E-05
  0.4000000E-01  0.0000000E+00  0.1500000E-01  0.3690016E-06  0.1845008E-06
  0.4500000E-01  0.0000000E+00  0.1500000E-01  0.2080576E-06  0.1040288E-06
  0.5000000E-01  0.0000000E+00  0.1500000E-01  0.2003677E-06  0.1001839E-06
  0.5500000E-01  0.0000000E+00  0.1500000E-01  0.2000182E-06  0.1000091E-06
  0.6000000E-01  0.0000000E+00  0.1500000E-01  0.2000020E-06  0.1000010E-06
  0.6500000E-01  0.0000000E+00  0.1500000E-01  0.1999945E-06  0.9999727E-07
  0.7000000E-01  0.0000000E+00  0.1500000E-01  0.1999877E-06  0.9999385E-07
  0.7500000E-01  0.0000000E+00  0.1500000E-01  0.1999937E-06  0.9999684E-07
  0.8000000E-01  0.0000000E+00  0.1500000E-01  0.2000045E-06  0.1000022E-06
  0.8500000E-01  0.0000000E+00  0.1500000E-01  0.1999943E-06  0.9999715E-07
  0.9000000E-01  0.0000000E+00  0.1500000E-01  0.1999813E-06  0.9999065E-07
  0.9500000E-01  0.0000000E+00  0.1500000E-01  0.1999924E-06  0.9999620E-07
  0.1000000E+00  0.0000000E+00  0.1500000E-01  0.1999925E-06  0.9999627E-07
  0.0000000E+00  0.0000000E+00  0.2000000E-01  0.1984586E-01  0.9922928E-02
  0.5000000E-02  0.0000000E+00  0.2000000E-01  0.1984334E-01  0.9921668E-02
  0.1000000E-01  0.0000000E+00  0.2000000E-01  0.1983920E-01  0.9919600E-02
  0.1500000E-01  0.0000000E+00  0.2000000E-01  0.1974305E-01  0.9871526E-02
  0.2000000E-01  0.0000000E+00  0.2000000E-01  0.1824658E-01  0.9123289E-02
  0.2500000E-01  0.0000000E+00  0.2000000E-01  0.1597772E-02  0.7988859E-03
  0.3000000E-01  0.0000000E+00  0.2000000E-01  0.1021257E-03  0.5106287E-04
  0.3500000E-01  0.0000000E+00  0.2000000E-01  0.5971920E-05  0.2985960E-05
  0.4000000E-01  0.0000000E+00  0.2000000E-01  0.5042808E-06  0.2521404E-06
  0.4500000E-01  0.0000000E+00  0.2000000E-01  0.2150809E-06  0.1075404E-06
  0.5000000E-01  0.0000000E+00  0.2000000E-01  0.2007014E-06  0.1003507E-06
  0.5500000E-01  0.0000000E+00  0.2000000E-01  0.2000299E-06  0.1000150E-06
  0.6000000E-01  0.0000000E+00  0.2000000E-01  0.2000056E-06  0.1000028E-06
  0.6500000E-01  0.0000000E+00  0.2000000E-01  0.2000032E-06  0.1000016E-06
  0.7000000E-01  0.0000000E+00  0.2000000E-01  0.1999884E-06  0.9999420E-07
  0.7500000E-01  0.0000000E+00  0.2000000E-01  0.1999805E-06  0.9999025E-07
  0.8000000E-01  0.0000000E+00  0.2000000E-01  0.1999978E-06  0.9999892E-07
  0.8500000E-01  0.0000000E+00  0.2000000E-01  0.2000031E-06  0.1000015E-06
  0.9000000E-01  0.0000000E+00  0.2000000E-01  0.1999845E-06  0.9999226E-07
  0.9500000E-01  0.0000000E+00  0.2000000E-01  0.1999874E-06  0.9999370E-07
  0.1000000E+00  0.0000000E+00  0.2000000E-01  0.1999482E-06  0.9997408E-07
  0.0000000E+00  0.0000000E+00  0.2500000E-01  0.1971523E-01  0.9857613E-02
  0.5000000E-02  0.0000000E+00  0.2500000E-01  0.1971296E-01  0.9856481E-02
  0.1000000E-01  0.0000000E+00  0.2500000E-01  0.1970554E-01  0.9852772E-02
  0.1500000E-01  0.0000000E+00  0.2500000E-01  0.1957406E-01  0.9787031E-02
  0.2000000E-01  0.0000000E+00  0.2500000E-01  0.1780341E-01  0.8901704E-02
  0.2500000E-01  0.0000000E+00  0.2500000E-01  0.1910415E-02  0.9552077E-03
  0.3000000E-01  0.0000000E+00  0.2500000E-01  0.1406374E-03  0.7031870E-04
  0.3500000E-01  0.0000000E+00  0.2500000E-01  0.8933261E-05  0.4466631E-05
  0.4000000E-01  0.0000000E+00  0.2500000E-01  0.6892671E-06  0.3446336E-06
  0.4500000E-01  0.0000000E+00  0.2500000E-01  0.2252434E-06  0.1126217E-06
  0.5000000E-01  0.0000000E+00  0.2500000E-01  0.2012070E-06  0.1006035E-06
  0.5500000E-01  0.0000000E+00  0.2500000E-01  0.2000436E-06  0.1000218E-06
  0.6000000E-01  0.0000000E+00  0.2500000E-01  0.1999950E-06  0.9999749E-07
  0.6500000E-01  0.0000000E+00  0.2500000E-01  0.2000046E-06  0.1000022E-06
  0.7000000E-01  0.0000000E+00  0.2500000E-01  0.1999992E-06  0.9999960E-07
  0.7500000E-01  0.0000000E+00  0.2500000E-01  0.1999744E-06  0.9998722E-07
  0.8000000E-01  0.0000000E+00  0.2500000E-01  0.1999755E-06  0.9998777E-07
  0.8500000E-01  0.0000000E+00  0.2500000E-01  0.1999950E-06  0.9999750E-07
  0.9000000E-01  0.0000000E+00  0.2500000E-01  0.1999929E-06  0.9999644E-07
  0.9500000E-01  0.0000000E+00  0.2500000E-01  0.2000150E-06  0.1000075E-06
  0.1000000E+00  0.0000000E+00  0.2500000E-01  0.1999240E-06  0.9996199E-07
  0.0000000E+00  0.0000000E+00  0.3000000E-01  0.1951371E-01  0.9756856E-02
  0.5000000E-02  0.0000000E+00  0.3000000E-01  0.1951206E-01  0.9756028E-02
  0.1000000E-01  0.0000000E+00  0.3000000E-01  0.1950117E-01  0.9750584E-02
  0.1500000E-01  0.0000000E+00  0.3000000E-01  0.1933285E-01  0.9666424E-02
  0.2000000E-01  0.0000000E+00  0.3000000E-01  0.1732930E-01  0.8664650E-02
  0.2500000E-01  0.0000000E+00  0.3000000E-01  0.2183389E-02  0.1091695E-02
  0.3000000E-01  0.0000000E+00  0.3000000E-01  0.1809197E-03  0.9045983E-04
  0.3500000E-01  0.0000000E+00  0.3000000E-01  0.1240870E-04  0.6204352E-05
  0.4000000E-01  0.0000000E+00  0.3000000E-01  0.9240644E-06  0.4620322E-06
  0.4500000E-01  0.0000000E+00  0.3000000E-01  0.2388726E-06  0.1194363E-06
  0.5000000E-01  0.0000000E+00  0.3000000E-01  0.2019253E-06  0.1009627E-06
  0.5500000E-01  0.0000000E+00  0.3000000E-01  0.2000823E-06  0.1000411E-06
  0.6000000E-01  0.0000000E+00  0.3000000E-01  0.1999844E-06  0.9999220E-07
  0.6500000E-01  0.0000000E+00  0.3000000E-01  0.1999899E-06  0.9999495E-07
  0.7000000E-01  0.0000000E+00  0.3000000E-01  0.2000075E-06  0.1000038E-06
  0.7500000E-01  0.0000000E+00  0.3000000E-01  0.1999910E-06  0.9999552E-07
  0.8000000E-01  0.0000000E+00  0.3000000E-01  0.1999653E-06  0.9998265E-07
  0.8500000E-01  0.0000000E+00  0.3000000E-01  0.1999660E-06  0.9998301E-07
  0.9000000E-01  0.0000000E+00  0.3000000E-01  0.1999616E-06  0.9998081E-07
  0.9500000E-01  0.0000000E+00  0.3000000E-01  0.2000253E-06  0.1000126E-06
  0.1000000E+00  0.0000000E+00  0.3000000E-01  0.1999512E-06  0.9997562E-07
  0.0000000E+00  0.0000000E+00  0.3500000E-01  0.1921948E-01  0.9609738E-02
  0.5000000E-02  0.0000000E+00  0.3500000E-01  0.1921785E-01  0.9608923E-02
  0.1000000E-01  0.0000000E+00  0.3500000E-01  0.1920326E-01  0.9601630E-02
  0.1500000E-01  0.0000000E+00  0.3500000E-01  0.1899892E-01  0.9499458E-02
  0.2000000E-01  0.0000000E+00  0.3500000E-01  0.1680645E-01  0.8403226E-02
  0.2500000E-01  0.0000000E+00  0.3500000E-01  0.2412737E-02  0.1206368E-02
  0.3000000E-01  0.0000000E+00  0.3500000E-01  0.2210599E-03  0.1105300E-03
  0.3500000E-01  0.0000000E+00  0.3500000E-01  0.1625499E-04  0.8127495E-05
  0.4000000E-01  0.0000000E+00  0.3500000E-01  0.1203589E-05  0.6017947E-06
  0.4500000E-01  0.0000000E+00  0.3500000E-01  0.2559626E-06  0.1279813E-06
  0.5000000E-01  0.0000000E+00  0.3500000E-01  0.2028506E-06  0.1014253E-06
  0.5500000E-01  0.0000000E+00  0.3500000E-01  0.2001418E-06  0.1000709E-06
  0.6000000E-01  0.0000000E+00  0.3500000E-01  0.1999906E-06  0.9999530E-07
  0.6500000E-01  0.0000000E+00  0.3500000E-01  0.1999673E-06  0.9998363E-07
  0.7000000E-01  0.0000000E+00  0.3500000E-01  0.1999875E-06  0.9999375E-07
  0.7500000E-01  0.0000000E+00  0.3500000E-01  0.2000050E-06  0.1000025E-06
  0.8000000E-01  0.0000000E+00  0.3500000E-01  0.1999886E-06  0.9999431E-07
  0.8500000E-01  0.0000000E+00  0.3500000E-01  0.1999709E-06  0.9998545E-07
  0.9000000E-01  0.0000000E+00  0.3500000E-01  0.1999237E-06  0.9996187E-07
  0.9500000E-01  0.0000000E+00  0.3500000E-01  0.1999915E-06  0.9999574E-07
  0.1000000E+00  0.0000000E+00  0.3500000E-01  0.1999812E-06  0.9999058E-07
  0.0000000E+00  0.0000000E+00  0.4000000E-01  0.1881307E-01  0.9406535E-02
  0.5000000E-02  0.0000000E+00  0.4000000E-01  0.1881141E-01  0.9405706E-02
  0.1000000E-01  0.0000000E+00  0.4000000E-01  0.1879272E-01  0.9396361E-02
  0.1500000E-01  0.0000000E+00  0.4000000E-01  0.1855421E-01  0.9277104E-02
  0.2000000E-01  0.0000000E+00  0.4000000E-01  0.1621866E-01  0.8109329E-02
  0.2500000E-01  0.0000000E+00  0.4000000E-01  0.2594315E-02  0.1297158E-02
  0.3000000E-01  0.0000000E+00  0.4000000E-01  0.2591281E-03  0.1295641E-03
  0.3500000E-01  0.0000000E+00  0.4000000E-01  0.2028833E-04  0.1014416E-04
  0.4000000E-01  0.0000000E+00  0.4000000E-01  0.1517926E-05  0.7589628E-06
  0.4500000E-01  0.0000000E+00  0.4000000E-01  0.2761876E-06  0.1380938E-06
  0.5000000E-01  0.0000000E+00  0.4000000E-01  0.2039732E-06  0.1019866E-06
  0.5500000E-01  0.0000000E+00  0.4000000E-01  0.2002036E-06  0.1001018E-06
  0.6000000E-01  0.0000000E+00  0.4000000E-01  0.2000169E-06  0.1000084E-06
  0.6500000E-01  0.0000000E+00  0.4000000E-01  0.1999717E-06  0.9998583E-07
  0.7000000E-01  0.0000000E+00  0.4000000E-01  0.1999553E-06  0.9997763E-07
  0.7500000E-01  0.0000000E+00  0.4000000E-01  0.1999775E-06  0.9998877E-07
  0.8000000E-01  0.0000000E+00  0.4000000E-01  0.1999926E-06  0.9999628E-07
  0.8500000E-01  0.0000000E+00  0.4000000E-01  0.2000029E-06  0.1000014E-06
  0.9000000E-01  0.0000000E+00  0.4000000E-01  0.1999267E-06  0.9996337E-07
  0.9500000E-01  0.0000000E+00  0.4000000E-01  0.1999555E-06  0.9997773E-07
  0.1000000E+00  0.0000000E+00  0.4000000E-01  0.1999774E-06  0.9998870E-07
  0.0000000E+00  0.0000000E+00  0.4500000E-01  0.1827497E-01  0.9137486E-02
  0.5000000E-02  0.0000000E+00  0.4500000E-01  0.1827357E-01  0.9136786E-02
  0.1000000E-01  0.0000000E+00  0.4500000E-01  0.1825125E-01  0.9125624E-02
  0.1500000E-01  0.0000000E+00  0.4500000E-01  0.1798245E-01  0.8991223E-02
  0.2000000E-01  0.0000000E+00  0.4500000E-01  0.1555137E-01  0.7775684E-02
  0.2500000E-01  0.0000000E+00  0.4500000E-01  0.2724119E-02  0.1362059E-02
  0.3000000E-01  0.0000000E+00  0.4500000E-01  0.2932190E-03  0.1466095E-03
  0.3500000E-01  0.0000000E+00  0.4500000E-01  0.2429253E-04  0.1214626E-04
  0.4000000E-01  0.0000000E+00  0.4500000E-01  0.1852690E-05  0.9263450E-06
  0.4500000E-01  0.0000000E+00  0.4500000E-01  0.2988799E-06  0.1494399E-06
  0.5000000E-01  0.0000000E+00  0.4500000E-01  0.2052825E-06  0.1026413E-06
  0.5500000E-01  0.0000000E+00  0.4500000E-01  0.2002500E-06  0.1001250E-06
  0.6000000E-01  0.0000000E+00  0.4500000E-01  0.2000265E-06  0.1000132E-06
  0.6500000E-01  0.0000000E+00  0.4500000E-01  0.2000037E-06  0.1000018E-06
  0.7000000E-01  0.0000000E+00  0.4500000E-01  0.1999627E-06  0.9998136E-07
  0.7500000E-01  0.0000000E+00  0.4500000E-01  0.1999491E-06  0.9997454E-07
  0.8000000E-01  0.0000000E+00  0.4500000E-01  0.1999575E-06  0.9997873E-07
  0.8500000E-01  0.0000000E+00  0.4500000E-01  0.2000094E-06  0.1000047E-06
  0.9000000E-01  0.0000000E+00  0.4500000E-01  0.1999517E-06  0.9997587E-07
  0.9500000E-01  0.0000000E+00  0.4500000E-01  0.1999478E-06  0.9997389E-07
  0.1000000E+00  0.0000000E+00  0.4500000E-01  0.1999558E-06  0.9997791E-07
  0.0000000E+00  0.0000000E+00  0.5000000E-01  0.1759482E-01  0.8797408E-02
  0.5000000E-02  0.0000000E+00  0.5000000E-01  0.1759323E-01  0.8796613E-02
  0.1000000E-01  0.0000000E+00  0.5000000E-01  0.1756770E-01  0.8783849E-02
  0.1500000E-01  0.0000000E+00  0.5000000E-01  0.1727425E-01  0.8637123E-02
  0.2000000E-01  0.0000000E+00  0.5000000E-01  0.1479642E-01  0.7398212E-02
  0.2500000E-01  0.0000000E+00  0.5000000E-01  0.2799632E-02  0.1399816E-02
  0.3000000E-01  0.0000000E+00  0.5000000E-01  0.3216499E-03  0.1608250E-03
  0.3500000E-01  0.0000000E+00  0.5000000E-01  0.2803808E-04  0.1401904E-04
  0.4000000E-01  0.0000000E+00  0.5000000E-01  0.2189696E-05  0.1094848E-05
  0.4500000E-01  0.0000000E+00  0.5000000E-01  0.3230188E-06  0.1615094E-06
  0.5000000E-01  0.0000000E+00  0.5000000E-01  0.2067624E-06  0.1033812E-06
  0.5500000E-01  0.0000000E+00  0.5000000E-01  0.2003092E-06  0.1001546E-06
  0.6000000E-01  0.0000000E+00  0.5000000E-01  0.2000003E-06  0.1000001E-06
  0.6500000E-01  0.0000000E+00  0.5000000E-01  0.2000093E-06  0.1000047E-06
  0.7000000E-01  0.0000000E+00  0.5000000E-01  0.1999926E-06  0.9999628E-07
  0.7500000E-01  0.0000000E+00  0.5000000E-01  0.1999606E-06  0.9998031E-07
  0.8000000E-01  0.0000000E+00  0.5000000E-01  0.1999280E-06  0.9996398E-07
  0.8500000E-01  0.0000000E+00  0.5000000E-01  0.1999846E-06  0.9999230E-07
  0.9000000E-01  0.0000000E+00  0.5000000E-01  0.1999618E-06  0.9998088E-07
  0.9500000E-01  0.0000000E+00  0.5000000E-01  0.1999557E-06  0.9997786E-07
  0.1000000E+00  0.0000000E+00  0.5000000E-01  0.1999422E-06  0.9997108E-07
  0.0000000E+00  0.0000000E+00  0.5500000E-01  0.1676805E-01  0.8384027E-02
  0.5000000E-02  0.0000000E+00  0.5500000E-01  0.1676612E-01  0.8383060E-02
  0.1000000E-01  0.0000000E+00  0.5500000E-01  0.1673779E-01  0.8368897E-02
  0.1500000E-01  0.0000000E+00  0.5500000E-01  0.1642643E-01  0.8213215E-02
  0.2000000E-01  0.0000000E+00  0.5500000E-01  0.1395065E-01  0.6975326E-02
  0.2500000E-01  0.0000000E+00  0.5500000E-01  0.2820007E-02  0.1410003E-02
  0.3000000E-01  0.0000000E+00  0.5500000E-01  0.3431105E-03  0.1715552E-03
  0.3500000E-01  0.0000000E+00  0.5500000E-01  0.3131130E-04  0.1565565E-04
  0.4000000E-01  0.0000000E+00  0.5500000E-01  0.2508913E-05  0.1254457E-05
  0.4500000E-01  0.0000000E+00  0.5500000E-01  0.3472436E-06  0.1736218E-06
  0.5000000E-01  0.0000000E+00  0.5500000E-01  0.2083324E-06  0.1041662E-06
  0.5500000E-01  0.0000000E+00  0.5500000E-01  0.2004133E-06  0.1002066E-06
  0.6000000E-01  0.0000000E+00  0.5500000E-01  0.1999838E-06  0.9999188E-07
  0.6500000E-01  0.0000000E+00  0.5500000E-01  0.1999814E-06  0.9999071E-07
  0.7000000E-01  0.0000000E+00  0.5500000E-01  0.1999963E-06  0.9999814E-07
  0.7500000E-01  0.0000000E+00  0.5500000E-01  0.1999886E-06  0.9999431E-07
  0.8000000E-01  0.0000000E+00  0.5500000E-01  0.1999308E-06  0.9996539E-07
  0.8500000E-01  0.0000000E+00  0.5500000E-01  0.1999612E-06  0.9998062E-07
  0.9000000E-01  0.0000000E+00  0.5500000E-01  0.1999537E-06  0.9997685E-07
  0.9500000E-01  0.0000000E+00  0.5500000E-01  0.1999599E-06  0.9997993E-07
  0.1000000E+00  0.0000000E+00  0.5500000E-01  0.1999418E-06  0.9997092E-07
  0.0000000E+00  0.0000000E+00  0.6000000E-01  0.1580056E-01  0.7900281E-02
  0.5000000E-02  0.0000000E+00  0.6000000E-01  0.1579814E-01  0.7899070E-02
  0.1000000E-01  0.0000000E+00  0.6000000E-01  0.1576735E-01  0.7883677E-02
  0.1500000E-01  0.0000000E+00  0.6000000E-01  0.1544519E-01  0.7722597E-02
  0.2000000E-01  0.0000000E+00  0.6000000E-01  0.1301778E-01  0.6508891E-02
  0.2500000E-01  0.0000000E+00  0.6000000E-01  0.2786227E-02  0.1393113E-02
  0.3000000E-01  0.0000000E+00  0.6000000E-01  0.3567031E-03  0.1783516E-03
  0.3500000E-01  0.0000000E+00  0.6000000E-01  0.3393685E-04  0.1696842E-04
  0.4000000E-01  0.0000000E+00  0.6000000E-01  0.2791764E-05  0.1395882E-05
  0.4500000E-01  0.0000000E+00  0.6000000E-01  0.3700974E-06  0.1850487E-06
  0.5000000E-01  0.0000000E+00  0.6000000E-01  0.2098660E-06  0.1049330E-06
  0.5500000E-01  0.0000000E+00  0.6000000E-01  0.2005321E-06  0.1002661E-06
  0.6000000E-01  0.0000000E+00  0.6000000E-01  0.2000049E-06  0.1000025E-06
  0.6500000E-01  0.0000000E+00  0.6000000E-01  0.1999636E-06  0.9998182E-07
  0.7000000E-01  0.0000000E+00  0.6000000E-01  0.1999746E-06  0.9998732E-07
  0.7500000E-01  0.0000000E+00  0.6000000E-01  0.1999986E-06  0.9999932E-07
  0.8000000E-01  0.0000000E+00  0.6000000E-01  0.1999492E-06  0.9997460E-07
  0.8500000E-01  0.0000000E+00  0.6000000E-01  0.1999568E-06  0.9997838E-07
  0.9000000E-01  0.0000000E+00  0.6000000E-01  0.1999448E-06  0.9997240E-07
  0.9500000E-01  0.0000000E+00  0.6000000E-01  0.1999578E-06  0.9997890E-07
  0.1000000E+00  0.0000000E+00  0.6000000E-01  0.1999480E-06  0.9997398E-07
  0.0000000E+00  0.0000000E+00  0.6500000E-01  0.1470731E-01  0.7353653E-02
  0.5000000E-02  0.0000000E+00  0.6500000E-01  0.1470482E-01  0.7352412E-02
  0.1000000E-01  0.0000000E+00  0.6500000E-01  0.1467232E-01  0.7336162E-02
  0.1500000E-01  0.0000000E+00  0.6500000E-01  0.1434677E-01  0.7173385E-02
  0.2000000E-01  0.0000000E+00  0.6500000E-01  0.1200969E-01  0.6004843E-02
  0.2500000E-01  0.0000000E+00  0.6500000E-01  0.2701541E-02  0.1350771E-02
  0.3000000E-01  0.0000000E+00  0.6500000E-01  0.3619492E-03  0.1809746E-03
  0.3500000E-01  0.0000000E+00  0.6500000E-01  0.3577917E-04  0.1788958E-04
  0.4000000E-01  0.0000000E+00  0.6500000E-01  0.3022691E-05  0.1511346E-05
  0.4500000E-01  0.0000000E+00  0.6500000E-01  0.3903066E-06  0.1951533E-06
  0.5000000E-01  0.0000000E+00  0.6500000E-01  0.2112763E-06  0.1056381E-06
  0.5500000E-01  0.0000000E+00  0.6500000E-01  0.2006243E-06  0.1003121E-06
  0.6000000E-01  0.0000000E+00  0.6500000E-01  0.2000376E-06  0.1000188E-06
  0.6500000E-01  0.0000000E+00  0.6500000E-01  0.1999759E-06  0.9998794E-07
  0.7000000E-01  0.0000000E+00  0.6500000E-01  0.1999597E-06  0.9997985E-07
  0.7500000E-01  0.0000000E+00  0.6500000E-01  0.1999914E-06  0.9999572E-07
  0.8000000E-01  0.0000000E+00  0.6500000E-01  0.1999624E-06  0.9998118E-07
  0.8500000E-01  0.0000000E+00  0.6500000E-01  0.1999646E-06  0.9998231E-07
  0.9000000E-01  0.0000000E+00  0.6500000E-01  0.1999452E-06  0.9997260E-07
  0.9500000E-01  0.0000000E+00  0.6500000E-01  0.1999568E-06  0.9997838E-07
  0.1000000E+00  0.0000000E+00  0.6500000E-01  0.1999561E-06  0.9997807E-07
  0.0000000E+00  0.0000000E+00  0.7000000E-01  0.1351171E-01  0.6755856E-02
  0.5000000E-02  0.0000000E+00  0.7000000E-01  0.1350949E-01  0.6754743E-02
  0.1000000E-01  0.0000000E+00  0.7000000E-01  0.1347643E-01  0.6738216E-02
  0.1500000E-01  0.0000000E+00  0.7000000E-01  0.1315517E-01  0.6577583E-02
  0.2000000E-01  0.0000000E+00  0.7000000E-01  0.1094516E-01  0.5472582E-02
  0.2500000E-01  0.0000000E+00  0.7000000E-01  0.2571824E-02  0.1285912E-02
  0.3000000E-01  0.0000000E+00  0.7000000E-01  0.3589056E-03  0.1794528E-03
  0.3500000E-01  0.0000000E+00  0.7000000E-01  0.3674975E-04  0.1837487E-04
  0.4000000E-01  0.0000000E+00  0.7000000E-01  0.3188912E-05  0.1594456E-05
  0.4500000E-01  0.0000000E+00  0.7000000E-01  0.4067835E-06  0.2033917E-06
  0.5000000E-01  0.0000000E+00  0.7000000E-01  0.2125176E-06  0.1062588E-06
  0.5500000E-01  0.0000000E+00  0.7000000E-01  0.2006912E-06  0.1003456E-06
  0.6000000E-01  0.0000000E+00  0.7000000E-01  0.2000540E-06  0.1000270E-06
  0.6500000E-01  0.0000000E+00  0.7000000E-01  0.2000005E-06  0.1000002E-06
  0.7000000E-01  0.0000000E+00  0.7000000E-01  0.1999659E-06  0.9998297E-07
  0.7500000E-01  0.0000000E+00  0.7000000E-01  0.1999861E-06  0.9999307E-07
  0.8000000E-01  0.0000000E+00  0.7000000E-01  0.1999687E-06  0.9998434E-07
  0.8500000E-01  0.0000000E+00  0.7000000E-01  0.1999752E-06  0.9998761E-07
  0.9000000E-01  0.0000000E+00  0.7000000E-01  0.1999542E-06  0.9997711E-07
  0.9500000E-01  0.0000000E+00  0.7000000E-01  0.1999619E-06  0.9998097E-07
  0.1000000E+00  0.0000000E+00  0.7000000E-01  0.1999676E-06  0.9998378E-07
  0.0000000E+00  0.0000000E+00  0.7500000E-01  0.1224492E-01  0.6122458E-02
  0.5000000E-02  0.0000000E+00  0.7500000E-01  0.1224255E-01  0.6121275E-02
  0.1000000E-01  0.0000000E+00  0.7500000E-01  0.1220973E-01  0.6104867E-02
  0.1500000E-01  0.0000000E+00  0.7500000E-01  0.1189977E-01  0.5949884E-02
  0.2000000E-01  0.0000000E+00  0.7500000E-01  0.9846997E-02  0.4923498E-02
  0.2500000E-01  0.0000000E+00  0.7500000E-01  0.2404896E-02  0.1202448E-02
  0.3000000E-01  0.0000000E+00  0.7500000E-01  0.3481961E-03  0.1740980E-03
  0.3500000E-01  0.0000000E+00  0.7500000E-01  0.3682729E-04  0.1841365E-04
  0.4000000E-01  0.0000000E+00  0.7500000E-01  0.3281700E-05  0.1640850E-05
  0.4500000E-01  0.0000000E+00  0.7500000E-01  0.4185897E-06  0.2092948E-06
  0.5000000E-01  0.0000000E+00  0.7500000E-01  0.2135347E-06  0.1067674E-06
  0.5500000E-01  0.0000000E+00  0.7500000E-01  0.2007552E-06  0.1003776E-06
  0.6000000E-01  0.0000000E+00  0.7500000E-01  0.2000571E-06  0.1000286E-06
  0.6500000E-01  0.0000000E+00  0.7500000E-01  0.2000194E-06  0.1000097E-06
  0.7000000E-01  0.0000000E+00  0.7500000E-01  0.1999853E-06  0.9999265E-07
  0.7500000E-01  0.0000000E+00  0.7500000E-01  0.1999932E-06  0.9999660E-07
  0.8000000E-01  0.0000000E+00  0.7500000E-01  0.1999770E-06  0.9998851E-07
  0.8500000E-01  0.0000000E+00  0.7500000E-01  0.1999871E-06  0.9999355E-07
  0.9000000E-01  0.0000000E+00  0.7500000E-01  0.1999690E-06  0.9998452E-07
  0.9500000E-01  0.0000000E+00  0.7500000E-01  0.1999746E-06  0.9998728E-07
  0.1000000E+00  0.0000000E+00  0.7500000E-01  0.1999853E-06  0.9999265E-07
  0.0000000E+00  0.0000000E+00  0.8000000E-01  0.1094184E-01  0.5470918E-02
  0.5000000E-02  0.0000000E+00  0.8000000E-01  0.1093915E-01  0.5469573E-02
  0.1000000E-01  0.0000000E+00  0.8000000E-01  0.1090703E-01  0.5453515E-02
  0.1500000E-01  0.0000000E+00  0.8000000E-01  0.1061398E-01  0.5306988E-02
  0.2000000E-01  0.0000000E+00  0.8000000E-01  0.8740294E-02  0.4370147E-02
  0.2500000E-01  0.0000000E+00  0.8000000E-01  0.2209586E-02  0.1104793E-02
  0.3000000E-01  0.0000000E+00  0.8000000E-01  0.3308527E-03  0.1654264E-03
  0.3500000E-01  0.0000000E+00  0.8000000E-01  0.3605950E-04  0.1802975E-04
  0.4000000E-01  0.0000000E+00  0.8000000E-01  0.3298418E-05  0.1649209E-05
  0.4500000E-01  0.0000000E+00  0.8000000E-01  0.4250872E-06  0.2125436E-06
  0.5000000E-01  0.0000000E+00  0.8000000E-01  0.2142588E-06  0.1071294E-06
  0.5500000E-01  0.0000000E+00  0.8000000E-01  0.2008230E-06  0.1004115E-06
  0.6000000E-01  0.0000000E+00  0.8000000E-01  0.2000641E-06  0.1000321E-06
  0.6500000E-01  0.0000000E+00  0.8000000E-01  0.2000325E-06  0.1000162E-06
  0.7000000E-01  0.0000000E+00  0.8000000E-01  0.2000079E-06  0.1000040E-06
  0.7500000E-01  0.0000000E+00  0.8000000E-01  0.2000115E-06  0.1000058E-06
  0.8000000E-01  0.0000000E+00  0.8000000E-01  0.1999937E-06  0.9999685E-07
  0.8500000E-01  0.0000000E+00  0.8000000E-01  0.2000039E-06  0.1000019E-06
  0.9000000E-01  0.0000000E+00  0.8000000E-01  0.1999896E-06  0.9999481E-07
  0.9500000E-01  0.0000000E+00  0.8000000E-01  0.1999948E-06  0.9999739E-07
  0.1000000E+00  0.0000000E+00  0.8000000E-01  0.2000117E-06  0.1000059E-06
  0.0000000E+00  0.0000000E+00  0.8500000E-01  0.9637681E-02  0.4818840E-02
  0.5000000E-02  0.0000000E+00  0.8500000E-01  0.9635072E-02  0.4817536E-02
  0.1000000E-01  0.0000000E+00  0.8500000E-01  0.9604287E-02  0.4802144E-02
  0.1500000E-01  0.0000000E+00  0.8500000E-01  0.9332537E-02  0.4666268E-02
  0.2000000E-01  0.0000000E+00  0.8500000E-01  0.7651121E-02  0.3825561E-02
  0.2500000E-01  0.0000000E+00  0.8500000E-01  0.1995249E-02  0.9976243E-03
  0.3000000E-01  0.0000000E+00  0.8500000E-01  0.3081491E-03  0.1540745E-03
  0.3500000E-01  0.0000000E+00  0.8500000E-01  0.3454377E-04  0.1727189E-04
  0.4000000E-01  0.0000000E+00  0.8500000E-01  0.3242531E-05  0.1621265E-05
  0.4500000E-01  0.0000000E+00  0.8500000E-01  0.4260962E-06  0.2130481E-06
  0.5000000E-01  0.0000000E+00  0.8500000E-01  0.2146416E-06  0.1073208E-06
  0.5500000E-01  0.0000000E+00  0.8500000E-01  0.2008845E-06  0.1004422E-06
  0.6000000E-01  0.0000000E+00  0.8500000E-01  0.2000835E-06  0.1000418E-06
  0.6500000E-01  0.0000000E+00  0.8500000E-01  0.2000489E-06  0.1000245E-06
  0.7000000E-01  0.0000000E+00  0.8500000E-01  0.2000325E-06  0.1000162E-06
  0.7500000E-01  0.0000000E+00  0.8500000E-01  0.2000376E-06  0.1000188E-06
  0.8000000E-01  0.0000000E+00  0.8500000E-01  0.2000202E-06  0.1000101E-06
  0.8500000E-01  0.0000000E+00  0.8500000E-01  0.2000293E-06  0.1000146E-06
  0.9000000E-01  0.0000000E+00  0.8500000E-01  0.2000179E-06  0.1000090E-06
  0.9500000E-01  0.0000000E+00  0.8500000E-01  0.2000236E-06  0.1000118E-06
  0.1000000E+00  0.0000000E+00  0.8500000E-01  0.2000484E-06  0.1000242E-06
  0.0000000E+00  0.0000000E+00  0.9000000E-01  0.8366085E-02  0.4183043E-02
  0.5000000E-02  0.0000000E+00  0.9000000E-01  0.8363874E-02  0.4181937E-02
  0.1000000E-01  0.0000000E+00  0.9000000E-01  0.8335166E-02  0.4167583E-02
  0.1500000E-01  0.0000000E+00  0.9000000E-01  0.8088039E-02  0.4044019E-02
  0.2000000E-01  0.0000000E+00  0.9000000E-01  0.6604135E-02  0.3302068E-02
  0.2500000E-01  0.0000000E+00  0.9000000E-01  0.1771308E-02  0.8856540E-03
  0.3000000E-01  0.0000000E+00  0.9000000E-01  0.2815099E-03  0.1407549E-03
  0.3500000E-01  0.0000000E+00  0.9000000E-01  0.3240890E-04  0.1620445E-04
  0.4000000E-01  0.0000000E+00  0.9000000E-01  0.3121924E-05  0.1560962E-05