title = "dataset ionx"
variables = "x", "y", "z","na-x(na)","ca-x(na)v","mg-x(na)v"
zone t = "S_i, T =  1.000E+01 hours", i =  101, j =    1, k =    1,  f=point
   .0000000E+00   .0000000E+00   .0000000E+00   .1534630E+01   .5529721E+01   .2935649E+01
   .0000000E+00   .0000000E+00   .1600000E+00   .1658366E+01   .5021259E+01   .3320375E+01
   .0000000E+00   .0000000E+00   .3200000E+00   .1775954E+01   .4645057E+01   .3578990E+01
   .0000000E+00   .0000000E+00   .4800000E+00   .1883554E+01   .4392239E+01   .3724208E+01
   .0000000E+00   .0000000E+00   .6400000E+00   .1979318E+01   .4232264E+01   .3788417E+01
   .0000000E+00   .0000000E+00   .8000000E+00   .2062672E+01   .4133501E+01   .3803827E+01
   .0000000E+00   .0000000E+00   .9600000E+00   .2133829E+01   .4072050E+01   .3794121E+01
   .0000000E+00   .0000000E+00   .1120000E+01   .2193534E+01   .4032544E+01   .3773923E+01
   .0000000E+00   .0000000E+00   .1280000E+01   .2242896E+01   .4005951E+01   .3751154E+01
   .0000000E+00   .0000000E+00   .1440000E+01   .2283229E+01   .3987192E+01   .3729579E+01
   .0000000E+00   .0000000E+00   .1600000E+01   .2315908E+01   .3973425E+01   .3710668E+01
   .0000000E+00   .0000000E+00   .1760000E+01   .2342251E+01   .3963011E+01   .3694738E+01
   .0000000E+00   .0000000E+00   .1920000E+01   .2363448E+01   .3954959E+01   .3681593E+01
   .0000000E+00   .0000000E+00   .2080000E+01   .2380522E+01   .3948628E+01   .3670849E+01
   .0000000E+00   .0000000E+00   .2240000E+01   .2394329E+01   .3943583E+01   .3662088E+01
   .0000000E+00   .0000000E+00   .2400000E+01   .2405562E+01   .3939511E+01   .3654928E+01
   .0000000E+00   .0000000E+00   .2560000E+01   .2414775E+01   .3936184E+01   .3649041E+01
   .0000000E+00   .0000000E+00   .2720000E+01   .2422408E+01   .3933431E+01   .3644161E+01
   .0000000E+00   .0000000E+00   .2880000E+01   .2428803E+01   .3931124E+01   .3640074E+01
   .0000000E+00   .0000000E+00   .3040000E+01   .2434229E+01   .3929162E+01   .3636609E+01
   .0000000E+00   .0000000E+00   .3200000E+01   .2438895E+01   .3927470E+01   .3633635E+01
   .0000000E+00   .0000000E+00   .3360000E+01   .2442964E+01   .3925989E+01   .3631047E+01
   .0000000E+00   .0000000E+00   .3520000E+01   .2446562E+01   .3924675E+01   .3628763E+01
   .0000000E+00   .0000000E+00   .3680000E+01   .2449789E+01   .3923492E+01   .3626719E+01
   .0000000E+00   .0000000E+00   .3840000E+01   .2452722E+01   .3922412E+01   .3624867E+01
   .0000000E+00   .0000000E+00   .4000000E+01   .2455421E+01   .3921414E+01   .3623166E+01
   .0000000E+00   .0000000E+00   .4160000E+01   .2457934E+01   .3920481E+01   .3621585E+01
   .0000000E+00   .0000000E+00   .4320000E+01   .2460299E+01   .3919599E+01   .3620101E+01
   .0000000E+00   .0000000E+00   .4480000E+01   .2462546E+01   .3918759E+01   .3618695E+01
   .0000000E+00   .0000000E+00   .4640000E+01   .2464697E+01   .3917953E+01   .3617350E+01
   .0000000E+00   .0000000E+00   .4800000E+01   .2466772E+01   .3917172E+01   .3616055E+01
   .0000000E+00   .0000000E+00   .4960000E+01   .2468785E+01   .3916414E+01   .3614801E+01
   .0000000E+00   .0000000E+00   .5120000E+01   .2470748E+01   .3915672E+01   .3613580E+01
   .0000000E+00   .0000000E+00   .5280000E+01   .2472668E+01   .3914945E+01   .3612386E+01
   .0000000E+00   .0000000E+00   .5440000E+01   .2474555E+01   .3914230E+01   .3611215E+01
   .0000000E+00   .0000000E+00   .5600000E+01   .2476412E+01   .3913525E+01   .3610063E+01
   .0000000E+00   .0000000E+00   .5760000E+01   .2478245E+01   .3912828E+01   .3608927E+01
   .0000000E+00   .0000000E+00   .5920000E+01   .2480055E+01   .3912139E+01   .3607806E+01
   .0000000E+00   .0000000E+00   .6080000E+01   .2481846E+01   .3911456E+01   .3606698E+01
   .0000000E+00   .0000000E+00   .6240000E+01   .2483619E+01   .3910780E+01   .3605601E+01
   .0000000E+00   .0000000E+00   .6400000E+01   .2485375E+01   .3910109E+01   .3604516E+01
   .0000000E+00   .0000000E+00   .6560000E+01   .2487115E+01   .3909445E+01   .3603441E+01
   .0000000E+00   .0000000E+00   .6720000E+01   .2488838E+01   .3908786E+01   .3602376E+01
   .0000000E+00   .0000000E+00   .6880000E+01   .2490545E+01   .3908133E+01   .3601322E+01
   .0000000E+00   .0000000E+00   .7040000E+01   .2492236E+01   .3907485E+01   .3600279E+01
   .0000000E+00   .0000000E+00   .7200000E+01   .2493910E+01   .3906844E+01   .3599246E+01
   .0000000E+00   .0000000E+00   .7360000E+01   .2495567E+01   .3906209E+01   .3598224E+01
   .0000000E+00   .0000000E+00   .7520000E+01   .2497206E+01   .3905581E+01   .3597213E+01
   .0000000E+00   .0000000E+00   .7680000E+01   .2498826E+01   .3904960E+01   .3596214E+01
   .0000000E+00   .0000000E+00   .7840000E+01   .2500427E+01   .3904345E+01   .3595227E+01
   .0000000E+00   .0000000E+00   .8000000E+01   .2502008E+01   .3903739E+01   .3594253E+01
   .0000000E+00   .0000000E+00   .8160000E+01   .2503569E+01   .3903139E+01   .3593292E+01
   .0000000E+00   .0000000E+00   .8320000E+01   .2505108E+01   .3902548E+01   .3592343E+01
   .0000000E+00   .0000000E+00   .8480000E+01   .2506626E+01   .3901965E+01   .3591409E+01
   .0000000E+00   .0000000E+00   .8640000E+01   .2508121E+01   .3901391E+01   .3590488E+01
   .0000000E+00   .0000000E+00   .8800000E+01   .2509593E+01   .3900825E+01   .3589582E+01
   .0000000E+00   .0000000E+00   .8960000E+01   .2511041E+01   .3900268E+01   .3588691E+01
   .0000000E+00   .0000000E+00   .9120000E+01   .2512465E+01   .3899721E+01   .3587814E+01
   .0000000E+00   .0000000E+00   .9280000E+01   .2513865E+01   .3899183E+01   .3586953E+01
   .0000000E+00   .0000000E+00   .9440000E+01   .2515239E+01   .3898654E+01   .3586107E+01
   .0000000E+00   .0000000E+00   .9600000E+01   .2516589E+01   .3898135E+01   .3585277E+01
   .0000000E+00   .0000000E+00   .9760000E+01   .2517913E+01   .3897625E+01   .3584462E+01
   .0000000E+00   .0000000E+00   .9920000E+01   .2519211E+01   .3897126E+01   .3583663E+01
   .0000000E+00   .0000000E+00   .1008000E+02   .2520483E+01   .3896636E+01   .3582881E+01
   .0000000E+00   .0000000E+00   .1024000E+02   .2521729E+01   .3896157E+01   .3582114E+01
   .0000000E+00   .0000000E+00   .1040000E+02   .2522950E+01   .3895687E+01   .3581363E+01
   .0000000E+00   .0000000E+00   .1056000E+02   .2524144E+01   .3895227E+01   .3580629E+01
   .0000000E+00   .0000000E+00   .1072000E+02   .2525312E+01   .3894778E+01   .3579910E+01
   .0000000E+00   .0000000E+00   .1088000E+02   .2526454E+01   .3894338E+01   .3579208E+01
   .0000000E+00   .0000000E+00   .1104000E+02   .2527570E+01   .3893908E+01   .3578521E+01
   .0000000E+00   .0000000E+00   .1120000E+02   .2528661E+01   .3893488E+01   .3577851E+01
   .0000000E+00   .0000000E+00   .1136000E+02   .2529726E+01   .3893078E+01   .3577196E+01
   .0000000E+00   .0000000E+00   .1152000E+02   .2530766E+01   .3892678E+01   .3576556E+01
   .0000000E+00   .0000000E+00   .1168000E+02   .2531781E+01   .3892287E+01   .3575932E+01
   .0000000E+00   .0000000E+00   .1184000E+02   .2532771E+01   .3891906E+01   .3575323E+01
   .0000000E+00   .0000000E+00   .1200000E+02   .2533737E+01   .3891534E+01   .3574729E+01
   .0000000E+00   .0000000E+00   .1216000E+02   .2534679E+01   .3891171E+01   .3574150E+01
   .0000000E+00   .0000000E+00   .1232000E+02   .2535598E+01   .3890817E+01   .3573585E+01
   .0000000E+00   .0000000E+00   .1248000E+02   .2536493E+01   .3890472E+01   .3573035E+01
   .0000000E+00   .0000000E+00   .1264000E+02   .2537366E+01   .3890136E+01   .3572498E+01
   .0000000E+00   .0000000E+00   .1280000E+02   .2538216E+01   .3889809E+01   .3571976E+01
   .0000000E+00   .0000000E+00   .1296000E+02   .2539043E+01   .3889490E+01   .3571467E+01
   .0000000E+00   .0000000E+00   .1312000E+02   .2539849E+01   .3889179E+01   .3570972E+01
   .0000000E+00   .0000000E+00   .1328000E+02   .2540634E+01   .3888876E+01   .3570490E+01
   .0000000E+00   .0000000E+00   .1344000E+02   .2541397E+01   .3888582E+01   .3570022E+01
   .0000000E+00   .0000000E+00   .1360000E+02   .2542138E+01   .3888295E+01   .3569567E+01
   .0000000E+00   .0000000E+00   .1376000E+02   .2542858E+01   .3888017E+01   .3569125E+01
   .0000000E+00   .0000000E+00   .1392000E+02   .2543556E+01   .3887747E+01   .3568698E+01
   .0000000E+00   .0000000E+00   .1408000E+02   .2544231E+01   .3887485E+01   .3568284E+01
   .0000000E+00   .0000000E+00   .1424000E+02   .2544881E+01   .3887232E+01   .3567886E+01
   .0000000E+00   .0000000E+00   .1440000E+02   .2545507E+01   .3886989E+01   .3567504E+01
   .0000000E+00   .0000000E+00   .1456000E+02   .2546104E+01   .3886756E+01   .3567139E+01
   .0000000E+00   .0000000E+00   .1472000E+02   .2546671E+01   .3886535E+01   .3566794E+01
   .0000000E+00   .0000000E+00   .1488000E+02   .2547203E+01   .3886327E+01   .3566471E+01
   .0000000E+00   .0000000E+00   .1504000E+02   .2547695E+01   .3886133E+01   .3566172E+01
   .0000000E+00   .0000000E+00   .1520000E+02   .2548140E+01   .3885958E+01   .3565902E+01
   .0000000E+00   .0000000E+00   .1536000E+02   .2548532E+01   .3885803E+01   .3565665E+01
   .0000000E+00   .0000000E+00   .1552000E+02   .2548860E+01   .3885673E+01   .3565467E+01
   .0000000E+00   .0000000E+00   .1568000E+02   .2549111E+01   .3885573E+01   .3565316E+01
   .0000000E+00   .0000000E+00   .1584000E+02   .2549274E+01   .3885508E+01   .3565218E+01
   .0000000E+00   .0000000E+00   .1600000E+02   .2549331E+01   .3885485E+01   .3565184E+01
