title = "dataset ionx"
variables = "time","na+1","k+1","mg+2","ca+2","cl-1","h+1"
zone t = "T_j, volume =   101", f=point
   .0000000E+00   .8656013E-01   .2557414E-02   .1793353E-01   .1107784E-01   .1607762E+00  -.4615790E-09
   .2400000E-06   .8656013E-01   .2557414E-02   .1793353E-01   .1107784E-01   .1607762E+00  -.4615790E-09
   .8749803E-06   .8656013E-01   .2557414E-02   .1793353E-01   .1107784E-01   .1607762E+00  -.4615790E-09
   .2554980E-05   .8656013E-01   .2557414E-02   .1793353E-01   .1107784E-01   .1607762E+00  -.4615790E-09
   .6999843E-05   .8656013E-01   .2557414E-02   .1793353E-01   .1107784E-01   .1607762E+00  -.4615790E-09
   .1875984E-04   .8656013E-01   .2557414E-02   .1793353E-01   .1107784E-01   .1607762E+00  -.4615790E-09
   .4987388E-04   .8656013E-01   .2557414E-02   .1793353E-01   .1107784E-01   .1607762E+00  -.4615790E-09
   .1321939E-03   .8656013E-01   .2557414E-02   .1793353E-01   .1107784E-01   .1607762E+00  -.4615790E-09
   .3499921E-03   .8656013E-01   .2557414E-02   .1793353E-01   .1107784E-01   .1607762E+00  -.4615790E-09
   .8204901E-03   .8656013E-01   .2557414E-02   .1793353E-01   .1107784E-01   .1607762E+00  -.4615790E-09
   .1836882E-02   .8656013E-01   .2557414E-02   .1793353E-01   .1107784E-01   .1607762E+00  -.4615790E-09
   .4032539E-02   .8656013E-01   .2557414E-02   .1793353E-01   .1107784E-01   .1607762E+00  -.4615790E-09
   .8775701E-02   .8656013E-01   .2557414E-02   .1793353E-01   .1107784E-01   .1607762E+00  -.4615790E-09
   .1902210E-01   .8656013E-01   .2557414E-02   .1793353E-01   .1107784E-01   .1607762E+00  -.4615790E-09
   .4115686E-01   .8656013E-01   .2557414E-02   .1793353E-01   .1107784E-01   .1607762E+00  -.4615790E-09
   .8256719E-01   .8656013E-01   .2557414E-02   .1793353E-01   .1107784E-01   .1607762E+00  -.4615790E-09
   .1600388E+00   .8656013E-01   .2557414E-02   .1793353E-01   .1107784E-01   .1607762E+00  -.4615790E-09
   .3049750E+00   .8656013E-01   .2557414E-02   .1793353E-01   .1107784E-01   .1607762E+00  -.4615790E-09
   .5761258E+00   .8656013E-01   .2557414E-02   .1793353E-01   .1107784E-01   .1607762E+00  -.4615790E-09
   .1083402E+01   .8655979E-01   .2557414E-02   .1793339E-01   .1107776E-01   .1607753E+00  -.4615790E-09
   .2032430E+01   .8651898E-01   .2557414E-02   .1791649E-01   .1106732E-01   .1606638E+00  -.4615790E-09
   .3620457E+01   .8574936E-01   .2557414E-02   .1760005E-01   .1087180E-01   .1585696E+00  -.4615790E-09
   .6277734E+01   .8055452E-01   .2557414E-02   .1556018E-01   .9610258E-02   .1447936E+00  -.4615790E-09
   .1000000E+02   .6756696E-01   .2557414E-02   .1105855E-01   .6824357E-02   .1126093E+00  -.4615790E-09
   .1497666E+02   .4901179E-01   .2557414E-02   .5946819E-02   .3663563E-02   .7162349E-01  -.4615790E-09
   .2151371E+02   .3152859E-01   .2557414E-02   .2517819E-02   .1548360E-02   .3826099E-01  -.4615790E-09
   .2996597E+02   .2025436E-01   .2557414E-02   .1051494E-02   .6460316E-03   .1956465E-01  -.4615790E-09
   .4109855E+02   .1518354E-01   .2557414E-02   .5930820E-03   .3642798E-03   .1191500E-01  -.4615790E-09
   .5972692E+02   .1352521E-01   .2557414E-02   .4715333E-03   .2895761E-03   .9520282E-02  -.4615790E-09
   .9457740E+02   .1320830E-01   .2557414E-02   .4509252E-03   .2768578E-03   .9072409E-02  -.4615790E-09
   .1000000E+03   .1318803E-01   .2557414E-02   .4497291E-03   .2761140E-03   .9044207E-02  -.4615790E-09
   .1117142E+03   .1317711E-01   .2557414E-02   .4493848E-03   .2758823E-03   .9030114E-02  -.4615790E-09
   .1370197E+03   .1317187E-01   .2557414E-02   .4500876E-03   .2762586E-03   .9026506E-02  -.4615790E-09
   .1843619E+03   .1314956E-01   .2557414E-02   .4571733E-03   .2801358E-03   .9026065E-02  -.4615790E-09
   .2343619E+03   .1305777E-01   .2557414E-02   .4868659E-03   .2963286E-03   .9026036E-02  -.4615790E-09
   .2843619E+03   .1279439E-01   .2557414E-02   .5722967E-03   .3425844E-03   .9026035E-02  -.4615790E-09
   .3343619E+03   .1224203E-01   .2557414E-02   .7522558E-03   .4388062E-03   .9026034E-02  -.4615790E-09
   .3843619E+03   .1145288E-01   .2557414E-02   .1010673E-02   .5749665E-03   .9026034E-02  -.4615790E-09
   .4343619E+03   .1069352E-01   .2557414E-02   .1260254E-02   .7050616E-03   .9026034E-02  -.4615790E-09
   .4843619E+03   .1015359E-01   .2557414E-02   .1437721E-02   .7975595E-03   .9026034E-02  -.4615790E-09
   .5343619E+03   .9833137E-02   .2557414E-02   .1542118E-02   .8533910E-03   .9026034E-02  -.4615790E-09
   .5843619E+03   .9659749E-02   .2557414E-02   .1596666E-02   .8855370E-03   .9026034E-02  -.4615790E-09
   .6343619E+03   .9569923E-02   .2557414E-02   .1621765E-02   .9053509E-03   .9026034E-02  -.4615790E-09
   .6843619E+03   .9524196E-02   .2557414E-02   .1629867E-02   .9201127E-03   .9026034E-02  -.4615790E-09
   .7343619E+03   .9500912E-02   .2557414E-02   .1627507E-02   .9341146E-03   .9026034E-02  -.4615790E-09
   .7843619E+03   .9488786E-02   .2557414E-02   .1617781E-02   .9499031E-03   .9026034E-02  -.4615790E-09
   .8343619E+03   .9482062E-02   .2557414E-02   .1601986E-02   .9690605E-03   .9026034E-02  -.4615790E-09
   .8843619E+03   .9477835E-02   .2557414E-02   .1580547E-02   .9926133E-03   .9026034E-02  -.4615790E-09
   .9343619E+03   .9474642E-02   .2557414E-02   .1553536E-02   .1021221E-02   .9026034E-02  -.4615790E-09
   .9843619E+03   .9471757E-02   .2557414E-02   .1520952E-02   .1055247E-02   .9026034E-02  -.4615790E-09
   .1000000E+04   .9470877E-02   .2557414E-02   .1510142E-02   .1066498E-02   .9026034E-02  -.4615790E-09
   .1033782E+04   .9468926E-02   .2557414E-02   .1484296E-02   .1093318E-02   .9026034E-02  -.4615790E-09
   .1083782E+04   .9465781E-02   .2557414E-02   .1440893E-02   .1138294E-02   .9026034E-02  -.4615790E-09
   .1133782E+04   .9462354E-02   .2557414E-02   .1392701E-02   .1188199E-02   .9026034E-02  -.4615790E-09
   .1183782E+04   .9458656E-02   .2557414E-02   .1340421E-02   .1242329E-02   .9026034E-02  -.4615790E-09
   .1233782E+04   .9454726E-02   .2557414E-02   .1284941E-02   .1299774E-02   .9026034E-02  -.4615790E-09
   .1283782E+04   .9450624E-02   .2557414E-02   .1227288E-02   .1359478E-02   .9026034E-02  -.4615790E-09
   .1333782E+04   .9446418E-02   .2557414E-02   .1168560E-02   .1420308E-02   .9026034E-02  -.4615790E-09
   .1383782E+04   .9442184E-02   .2557414E-02   .1109852E-02   .1481134E-02   .9026034E-02  -.4615790E-09
   .1433782E+04   .9437992E-02   .2557414E-02   .1052190E-02   .1540891E-02   .9026034E-02  -.4615790E-09
   .1483782E+04   .9433911E-02   .2557414E-02   .9964740E-03   .1598648E-02   .9026034E-02  -.4615790E-09
   .1533782E+04   .9429996E-02   .2557414E-02   .9434419E-03   .1653637E-02   .9026034E-02  -.4615790E-09
   .1583782E+04   .9426293E-02   .2557414E-02   .8936508E-03   .1705280E-02   .9026034E-02  -.4615790E-09
   .1633782E+04   .9422835E-02   .2557414E-02   .8474765E-03   .1753184E-02   .9026034E-02  -.4615790E-09
   .1683782E+04   .9419641E-02   .2557414E-02   .8051267E-03   .1797130E-02   .9026034E-02  -.4615790E-09
   .1733782E+04   .9416723E-02   .2557414E-02   .7666640E-03   .1837052E-02   .9026034E-02  -.4615790E-09
   .1783782E+04   .9414080E-02   .2557414E-02   .7320325E-03   .1873005E-02   .9026034E-02  -.4615790E-09
   .1833782E+04   .9411706E-02   .2557414E-02   .7010864E-03   .1905138E-02   .9026034E-02  -.4615790E-09
   .1883782E+04   .9409589E-02   .2557414E-02   .6736162E-03   .1933667E-02   .9026034E-02  -.4615790E-09
   .1933782E+04   .9407713E-02   .2557414E-02   .6493716E-03   .1958850E-02   .9026034E-02  -.4615790E-09
   .1983782E+04   .9406059E-02   .2557414E-02   .6280805E-03   .1980968E-02   .9026034E-02  -.4615790E-09
   .2033782E+04   .9404608E-02   .2557414E-02   .6094641E-03   .2000310E-02   .9026034E-02  -.4615790E-09
   .2083782E+04   .9403340E-02   .2557414E-02   .5932471E-03   .2017160E-02   .9026034E-02  -.4615790E-09
   .2133782E+04   .9402236E-02   .2557414E-02   .5791660E-03   .2031793E-02   .9026034E-02  -.4615790E-09
   .2183782E+04   .9401278E-02   .2557414E-02   .5669737E-03   .2044464E-02   .9026034E-02  -.4615790E-09
   .2233782E+04   .9400450E-02   .2557414E-02   .5564425E-03   .2055410E-02   .9026034E-02  -.4615790E-09
   .2283782E+04   .9399734E-02   .2557414E-02   .5473651E-03   .2064845E-02   .9026034E-02  -.4615790E-09
   .2333782E+04   .9399117E-02   .2557414E-02   .5395552E-03   .2072963E-02   .9026034E-02  -.4615790E-09
   .2383782E+04   .9398587E-02   .2557414E-02   .5328465E-03   .2079937E-02   .9026034E-02  -.4615790E-09
   .2433782E+04   .9398132E-02   .2557414E-02   .5270918E-03   .2085920E-02   .9026034E-02  -.4615790E-09
   .2483782E+04   .9397741E-02   .2557414E-02   .5221614E-03   .2091045E-02   .9026034E-02  -.4615790E-09
   .2533782E+04   .9397407E-02   .2557414E-02   .5179418E-03   .2095432E-02   .9026034E-02  -.4615790E-09
   .2583782E+04   .9397121E-02   .2557414E-02   .5143340E-03   .2099183E-02   .9026034E-02  -.4615790E-09
   .2633782E+04   .9396876E-02   .2557414E-02   .5112518E-03   .2102388E-02   .9026034E-02  -.4615790E-09
   .2683782E+04   .9396667E-02   .2557414E-02   .5086208E-03   .2105123E-02   .9026034E-02  -.4615790E-09
   .2733782E+04   .9396489E-02   .2557414E-02   .5063763E-03   .2107457E-02   .9026034E-02  -.4615790E-09
   .2783782E+04   .9396337E-02   .2557414E-02   .5044627E-03   .2109446E-02   .9026034E-02  -.4615790E-09
   .2833782E+04   .9396207E-02   .2557414E-02   .5028322E-03   .2111142E-02   .9026034E-02  -.4615790E-09
   .2883782E+04   .9396097E-02   .2557414E-02   .5014436E-03   .2112586E-02   .9026034E-02  -.4615790E-09
   .2933782E+04   .9396003E-02   .2557414E-02   .5002615E-03   .2113815E-02   .9026034E-02  -.4615790E-09
   .2983782E+04   .9395923E-02   .2557414E-02   .4992556E-03   .2114861E-02   .9026034E-02  -.4615790E-09
   .3033782E+04   .9395854E-02   .2557414E-02   .4984007E-03   .2115750E-02   .9026034E-02  -.4615790E-09
   .3083782E+04   .9395796E-02   .2557414E-02   .4976735E-03   .2116506E-02   .9026034E-02  -.4615790E-09
   .3133782E+04   .9395747E-02   .2557414E-02   .4970553E-03   .2117149E-02   .9026034E-02  -.4615790E-09
   .3183782E+04   .9395705E-02   .2557414E-02   .4965298E-03   .2117695E-02   .9026034E-02  -.4615790E-09
   .3233782E+04   .9395670E-02   .2557414E-02   .4960833E-03   .2118159E-02   .9026034E-02  -.4615790E-09
   .3283782E+04   .9395640E-02   .2557414E-02   .4957040E-03   .2118554E-02   .9026034E-02  -.4615790E-09
   .3333782E+04   .9395614E-02   .2557414E-02   .4953820E-03   .2118888E-02   .9026034E-02  -.4615790E-09
   .3383782E+04   .9395592E-02   .2557414E-02   .4951086E-03   .2119173E-02   .9026034E-02  -.4615790E-09
   .3433782E+04   .9395574E-02   .2557414E-02   .4948765E-03   .2119414E-02   .9026034E-02  -.4615790E-09
   .3483782E+04   .9395558E-02   .2557414E-02   .4946796E-03   .2119619E-02   .9026034E-02  -.4615790E-09
   .3500000E+04   .9395553E-02   .2557414E-02   .4946192E-03   .2119681E-02   .9026034E-02  -.4615790E-09
