title = "dataset ionx"
variables = "time","na-x(na)","ca-x(na)v","mg-x(na)v"
zone t = "S_i, volume =   101", f=point
   .0000000E+00   .2561830E+01   .3880788E+01   .3557382E+01
   .2400000E-06   .2561830E+01   .3880788E+01   .3557382E+01
   .8749803E-06   .2561830E+01   .3880788E+01   .3557382E+01
   .2554980E-05   .2561830E+01   .3880788E+01   .3557382E+01
   .6999843E-05   .2561830E+01   .3880788E+01   .3557382E+01
   .1875984E-04   .2561830E+01   .3880788E+01   .3557382E+01
   .4987388E-04   .2561830E+01   .3880788E+01   .3557382E+01
   .1321939E-03   .2561830E+01   .3880788E+01   .3557382E+01
   .3499921E-03   .2561830E+01   .3880788E+01   .3557382E+01
   .8204901E-03   .2561830E+01   .3880788E+01   .3557382E+01
   .1836882E-02   .2561830E+01   .3880788E+01   .3557382E+01
   .4032539E-02   .2561830E+01   .3880788E+01   .3557382E+01
   .8775701E-02   .2561830E+01   .3880788E+01   .3557382E+01
   .1902210E-01   .2561830E+01   .3880788E+01   .3557382E+01
   .4115686E-01   .2561830E+01   .3880788E+01   .3557382E+01
   .8256719E-01   .2561830E+01   .3880788E+01   .3557382E+01
   .1600388E+00   .2561830E+01   .3880788E+01   .3557382E+01
   .3049750E+00   .2561830E+01   .3880788E+01   .3557382E+01
   .5761258E+00   .2561830E+01   .3880788E+01   .3557382E+01
   .1083402E+01   .2561830E+01   .3880788E+01   .3557382E+01
   .2032430E+01   .2561829E+01   .3880788E+01   .3557382E+01
   .3620457E+01   .2561777E+01   .3880807E+01   .3557416E+01
   .6277734E+01   .2559896E+01   .3881502E+01   .3558602E+01
   .1000000E+02   .2549331E+01   .3885485E+01   .3565184E+01
   .1497666E+02   .2526690E+01   .3894095E+01   .3579214E+01
   .2151371E+02   .2503066E+01   .3903082E+01   .3593852E+01
   .2996597E+02   .2490877E+01   .3907700E+01   .3601423E+01
   .4109855E+02   .2487108E+01   .3909114E+01   .3603778E+01
   .5972692E+02   .2485096E+01   .3909858E+01   .3605046E+01
   .9457740E+02   .2482311E+01   .3910884E+01   .3606805E+01
   .1000000E+03   .2481887E+01   .3911040E+01   .3607073E+01
   .1117142E+03   .2480979E+01   .3911374E+01   .3607647E+01
   .1370197E+03   .2478579E+01   .3912248E+01   .3609173E+01
   .1843619E+03   .2459344E+01   .3919085E+01   .3621571E+01
   .2343619E+03   .2382690E+01   .3946123E+01   .3671187E+01
   .2843619E+03   .2189801E+01   .4013632E+01   .3796568E+01
   .3343619E+03   .1876221E+01   .4122245E+01   .4001534E+01
   .3843619E+03   .1553869E+01   .4232944E+01   .4213187E+01
   .4343619E+03   .1322450E+01   .4312646E+01   .4364904E+01
   .4843619E+03   .1187244E+01   .4361172E+01   .4451585E+01
   .5343619E+03   .1115363E+01   .4391332E+01   .4493305E+01
   .5843619E+03   .1078460E+01   .4414513E+01   .4507027E+01
   .6343619E+03   .1059538E+01   .4438472E+01   .4501989E+01
   .6843619E+03   .1049514E+01   .4468488E+01   .4481998E+01
   .7343619E+03   .1043707E+01   .4508448E+01   .4447845E+01
   .7843619E+03   .1039730E+01   .4561412E+01   .4398857E+01
   .8343619E+03   .1036357E+01   .4629816E+01   .4333827E+01
   .8843619E+03   .1032954E+01   .4715458E+01   .4251588E+01
   .9343619E+03   .1029199E+01   .4819399E+01   .4151401E+01
   .9843619E+03   .1024939E+01   .4941850E+01   .4033211E+01
   .1000000E+04   .1023555E+01   .4981975E+01   .3994471E+01
   .1033782E+04   .1020299E+01   .5076919E+01   .3902782E+01
   .1083782E+04   .1014926E+01   .5233723E+01   .3751351E+01
   .1133782E+04   .1009067E+01   .5404195E+01   .3586738E+01
   .1183782E+04   .1002821E+01   .5585019E+01   .3412160E+01
   .1233782E+04   .9963090E+00   .5772420E+01   .3231271E+01
   .1283782E+04   .9896617E+00   .5962450E+01   .3047889E+01
   .1333782E+04   .9830108E+00   .6151272E+01   .2865717E+01
   .1383782E+04   .9764790E+00   .6335417E+01   .2688104E+01
   .1433782E+04   .9701733E+00   .6511955E+01   .2517872E+01
   .1483782E+04   .9641803E+00   .6678606E+01   .2357214E+01
   .1533782E+04   .9585645E+00   .6833763E+01   .2207673E+01
   .1583782E+04   .9533680E+00   .6976457E+01   .2070175E+01
   .1633782E+04   .9486131E+00   .7106283E+01   .1945104E+01
   .1683782E+04   .9443051E+00   .7223296E+01   .1832399E+01
   .1733782E+04   .9404353E+00   .7327902E+01   .1731663E+01
   .1783782E+04   .9369851E+00   .7420762E+01   .1642253E+01
   .1833782E+04   .9339291E+00   .7502698E+01   .1563373E+01
   .1883782E+04   .9312372E+00   .7574621E+01   .1494142E+01
   .1933782E+04   .9288775E+00   .7637476E+01   .1433646E+01
   .1983782E+04   .9268176E+00   .7692199E+01   .1380983E+01
   .2033782E+04   .9250257E+00   .7739688E+01   .1335286E+01
   .2083782E+04   .9234718E+00   .7780786E+01   .1295742E+01
   .2133782E+04   .9221278E+00   .7816268E+01   .1261604E+01
   .2183782E+04   .9209680E+00   .7846840E+01   .1232192E+01
   .2233782E+04   .9199691E+00   .7873136E+01   .1206895E+01
   .2283782E+04   .9191103E+00   .7895718E+01   .1185172E+01
   .2333782E+04   .9183729E+00   .7915086E+01   .1166541E+01
   .2383782E+04   .9177407E+00   .7931679E+01   .1150580E+01
   .2433782E+04   .9171993E+00   .7945879E+01   .1136922E+01
   .2483782E+04   .9167360E+00   .7958021E+01   .1125243E+01
   .2533782E+04   .9163400E+00   .7968395E+01   .1115265E+01
   .2583782E+04   .9160017E+00   .7977252E+01   .1106747E+01
   .2633782E+04   .9157130E+00   .7984809E+01   .1099478E+01
   .2683782E+04   .9154667E+00   .7991253E+01   .1093280E+01
   .2733782E+04   .9152567E+00   .7996746E+01   .1087998E+01
   .2783782E+04   .9150777E+00   .8001425E+01   .1083498E+01
   .2833782E+04   .9149253E+00   .8005409E+01   .1079666E+01
   .2883782E+04   .9147956E+00   .8008801E+01   .1076404E+01
   .2933782E+04   .9146852E+00   .8011686E+01   .1073629E+01
   .2983782E+04   .9145912E+00   .8014141E+01   .1071268E+01
   .3033782E+04   .9145114E+00   .8016226E+01   .1069263E+01
   .3083782E+04   .9144435E+00   .8017999E+01   .1067557E+01
   .3133782E+04   .9143858E+00   .8019507E+01   .1066107E+01
   .3183782E+04   .9143368E+00   .8020788E+01   .1064876E+01
   .3233782E+04   .9142951E+00   .8021876E+01   .1063829E+01
   .3283782E+04   .9142598E+00   .8022800E+01   .1062940E+01
   .3333782E+04   .9142297E+00   .8023584E+01   .1062186E+01
   .3383782E+04   .9142042E+00   .8024250E+01   .1061545E+01
   .3433782E+04   .9141826E+00   .8024816E+01   .1061002E+01
   .3483782E+04   .9141642E+00   .8025295E+01   .1060541E+01
   .3500000E+04   .9141586E+00   .8025442E+01   .1060399E+01
