title = "dataset ionx"						
variables = "Volume [m^3]","ca+2"						
zone t = "Experimental results - Ca+2", f=point						
115.314835	401.237648
279.002605	178.167976
483.131819	46.163063
659.50685	32.945622
846.671413	15.556127
1169.845127	13.22825
1260.551498	12.273032
1392.557898	10.967719
1830.322495	10.836686
2260.656254	11.115587
2792.416922	10.844983
4313.873333	10.323609
4823.156328	11.702216
5458.880839	14.846643
6412.881037	19.074474
6992.908894	23.60009
7915.328865	28.47963
8632.985075	31.483403
9533.632066	34.371929
10525.65268	43.06353
11201.99298	39.456128
11923.65738	33.118851
13663.68136	42.548087
15278.14027	45.875117
17513.16311	49.46453
19103.15683	51.364953
21102.71823	47.065325
22730.3251	54.018584
25104.49945	55.397621
28421.69665	59.73076
32994.87702	56.123019
variables = "Volume [m^3]","Mg+2"						
zone t = "Experimental results - Mg+2", f=point	
117.122468	393.061494
286.217176	179.152548
484.755842	45.521858
647.374108	32.110218
864.008218	16.185347
1154.276848	13.93256
1229.227329	13.090458
1359.432827	11.996056
1484.529679	10.723122
1771.417267	11.990336
2250.738999	11.836916
2718.952945	11.258206
3284.49237	10.575344
4280.468616	11.389888
4795.910992	13.058388
5442.710749	16.745494
6022.690507	20.94669
6256.964586	25.24446
7281.933622	31.970499
7853.682536	31.180245
8472.661318	35.30806
9255.30715	37.569168
10633.82557	41.492145
11324.57063	39.472548
13680.0697	37.078354
15520.03129	39.944218
18052.02247	37.059832
19470.29229	37.054782
21801.30761	30.357769
23810.23181	28.878817
26003.07597	26.79651
27345.91708	25.812064
29490.97625	24.251398
33024.72274	20.882562
	