title = "dataset ionx"
variables = "x", "y", "z","na+1","k+1","mg+2","ca+2","cl-1","h+1"
zone t = "T_j, T =  1.000E+01 hours", i =  101, j =    1, k =    1,  f=point
   .0000000E+00   .0000000E+00   .0000000E+00   .1255370E-01   .2557414E-02   .8674421E-03   .9252084E-03   .1079489E-01  -.4615790E-09
   .0000000E+00   .0000000E+00   .1600000E+00   .1301913E-01   .2557414E-02   .9036291E-03   .7737770E-03   .1106923E-01  -.4615790E-09
   .0000000E+00   .0000000E+00   .3200000E+00   .1347324E-01   .2557414E-02   .9095805E-03   .6684543E-03   .1136741E-01  -.4615790E-09
   .0000000E+00   .0000000E+00   .4800000E+00   .1391298E-01   .2557414E-02   .8972604E-03   .5991982E-03   .1169038E-01  -.4615790E-09
   .0000000E+00   .0000000E+00   .6400000E+00   .1433820E-01   .2557414E-02   .8778407E-03   .5553038E-03   .1203904E-01  -.4615790E-09
   .0000000E+00   .0000000E+00   .8000000E+00   .1475072E-01   .2557414E-02   .8589872E-03   .5285475E-03   .1241422E-01  -.4615790E-09
   .0000000E+00   .0000000E+00   .9600000E+00   .1515363E-01   .2557414E-02   .8449389E-03   .5134844E-03   .1281670E-01  -.4615790E-09
   .0000000E+00   .0000000E+00   .1120000E+01   .1555062E-01   .2557414E-02   .8375290E-03   .5067408E-03   .1324720E-01  -.4615790E-09
   .0000000E+00   .0000000E+00   .1280000E+01   .1594552E-01   .2557414E-02   .8371904E-03   .5062499E-03   .1370639E-01  -.4615790E-09
   .0000000E+00   .0000000E+00   .1440000E+01   .1634195E-01   .2557414E-02   .8436627E-03   .5107122E-03   .1419483E-01  -.4615790E-09
   .0000000E+00   .0000000E+00   .1600000E+01   .1674313E-01   .2557414E-02   .8564119E-03   .5192728E-03   .1471303E-01  -.4615790E-09
   .0000000E+00   .0000000E+00   .1760000E+01   .1715176E-01   .2557414E-02   .8748514E-03   .5313442E-03   .1526144E-01  -.4615790E-09
   .0000000E+00   .0000000E+00   .1920000E+01   .1757007E-01   .2557414E-02   .8984436E-03   .5465086E-03   .1584040E-01  -.4615790E-09
   .0000000E+00   .0000000E+00   .2080000E+01   .1799979E-01   .2557414E-02   .9267380E-03   .5644646E-03   .1645019E-01  -.4615790E-09
   .0000000E+00   .0000000E+00   .2240000E+01   .1844225E-01   .2557414E-02   .9593763E-03   .5849936E-03   .1709101E-01  -.4615790E-09
   .0000000E+00   .0000000E+00   .2400000E+01   .1889841E-01   .2557414E-02   .9960845E-03   .6079386E-03   .1776297E-01  -.4615790E-09
   .0000000E+00   .0000000E+00   .2560000E+01   .1936892E-01   .2557414E-02   .1036660E-02   .6331882E-03   .1846610E-01  -.4615790E-09
   .0000000E+00   .0000000E+00   .2720000E+01   .1985420E-01   .2557414E-02   .1080956E-02   .6606659E-03   .1920037E-01  -.4615790E-09
   .0000000E+00   .0000000E+00   .2880000E+01   .2035445E-01   .2557414E-02   .1128871E-02   .6903206E-03   .1996565E-01  -.4615790E-09
   .0000000E+00   .0000000E+00   .3040000E+01   .2086970E-01   .2557414E-02   .1180337E-02   .7221199E-03   .2076175E-01  -.4615790E-09
   .0000000E+00   .0000000E+00   .3200000E+01   .2139984E-01   .2557414E-02   .1235310E-02   .7560451E-03   .2158840E-01  -.4615790E-09
   .0000000E+00   .0000000E+00   .3360000E+01   .2194466E-01   .2557414E-02   .1293765E-02   .7920868E-03   .2244526E-01  -.4615790E-09
   .0000000E+00   .0000000E+00   .3520000E+01   .2250385E-01   .2557414E-02   .1355687E-02   .8302417E-03   .2333192E-01  -.4615790E-09
   .0000000E+00   .0000000E+00   .3680000E+01   .2307700E-01   .2557414E-02   .1421069E-02   .8705102E-03   .2424791E-01  -.4615790E-09
   .0000000E+00   .0000000E+00   .3840000E+01   .2366366E-01   .2557414E-02   .1489908E-02   .9128942E-03   .2519269E-01  -.4615790E-09
   .0000000E+00   .0000000E+00   .4000000E+01   .2426333E-01   .2557414E-02   .1562201E-02   .9573957E-03   .2616567E-01  -.4615790E-09
   .0000000E+00   .0000000E+00   .4160000E+01   .2487544E-01   .2557414E-02   .1637947E-02   .1004016E-02   .2716620E-01  -.4615790E-09
   .0000000E+00   .0000000E+00   .4320000E+01   .2549943E-01   .2557414E-02   .1717140E-02   .1052753E-02   .2819357E-01  -.4615790E-09
   .0000000E+00   .0000000E+00   .4480000E+01   .2613466E-01   .2557414E-02   .1799769E-02   .1103605E-02   .2924704E-01  -.4615790E-09
   .0000000E+00   .0000000E+00   .4640000E+01   .2678050E-01   .2557414E-02   .1885822E-02   .1156563E-02   .3032582E-01  -.4615790E-09
   .0000000E+00   .0000000E+00   .4800000E+01   .2743630E-01   .2557414E-02   .1975277E-02   .1211618E-02   .3142907E-01  -.4615790E-09
   .0000000E+00   .0000000E+00   .4960000E+01   .2810140E-01   .2557414E-02   .2068110E-02   .1268755E-02   .3255592E-01  -.4615790E-09
   .0000000E+00   .0000000E+00   .5120000E+01   .2877512E-01   .2557414E-02   .2164289E-02   .1327956E-02   .3370548E-01  -.4615790E-09
   .0000000E+00   .0000000E+00   .5280000E+01   .2945679E-01   .2557414E-02   .2263774E-02   .1389200E-02   .3487681E-01  -.4615790E-09
   .0000000E+00   .0000000E+00   .5440000E+01   .3014573E-01   .2557414E-02   .2366523E-02   .1452458E-02   .3606896E-01  -.4615790E-09
   .0000000E+00   .0000000E+00   .5600000E+01   .3084126E-01   .2557414E-02   .2472482E-02   .1517702E-02   .3728095E-01  -.4615790E-09
   .0000000E+00   .0000000E+00   .5760000E+01   .3154273E-01   .2557414E-02   .2581596E-02   .1584897E-02   .3851178E-01  -.4615790E-09
   .0000000E+00   .0000000E+00   .5920000E+01   .3224946E-01   .2557414E-02   .2693801E-02   .1654004E-02   .3976044E-01  -.4615790E-09
   .0000000E+00   .0000000E+00   .6080000E+01   .3296081E-01   .2557414E-02   .2809026E-02   .1724982E-02   .4102592E-01  -.4615790E-09
   .0000000E+00   .0000000E+00   .6240000E+01   .3367613E-01   .2557414E-02   .2927198E-02   .1797785E-02   .4230718E-01  -.4615790E-09
   .0000000E+00   .0000000E+00   .6400000E+01   .3439480E-01   .2557414E-02   .3048236E-02   .1872365E-02   .4360319E-01  -.4615790E-09
   .0000000E+00   .0000000E+00   .6560000E+01   .3511619E-01   .2557414E-02   .3172054E-02   .1948670E-02   .4491291E-01  -.4615790E-09
   .0000000E+00   .0000000E+00   .6720000E+01   .3583971E-01   .2557414E-02   .3298564E-02   .2026645E-02   .4623530E-01  -.4615790E-09
   .0000000E+00   .0000000E+00   .6880000E+01   .3656478E-01   .2557414E-02   .3427671E-02   .2106233E-02   .4756932E-01  -.4615790E-09
   .0000000E+00   .0000000E+00   .7040000E+01   .3729083E-01   .2557414E-02   .3559277E-02   .2187374E-02   .4891395E-01  -.4615790E-09
   .0000000E+00   .0000000E+00   .7200000E+01   .3801730E-01   .2557414E-02   .3693282E-02   .2270006E-02   .5026816E-01  -.4615790E-09
   .0000000E+00   .0000000E+00   .7360000E+01   .3874366E-01   .2557414E-02   .3829580E-02   .2354065E-02   .5163094E-01  -.4615790E-09
   .0000000E+00   .0000000E+00   .7520000E+01   .3946941E-01   .2557414E-02   .3968066E-02   .2439486E-02   .5300128E-01  -.4615790E-09
   .0000000E+00   .0000000E+00   .7680000E+01   .4019404E-01   .2557414E-02   .4108629E-02   .2526201E-02   .5437820E-01  -.4615790E-09
   .0000000E+00   .0000000E+00   .7840000E+01   .4091708E-01   .2557414E-02   .4251159E-02   .2614142E-02   .5576071E-01  -.4615790E-09
   .0000000E+00   .0000000E+00   .8000000E+01   .4163807E-01   .2557414E-02   .4395542E-02   .2703239E-02   .5714786E-01  -.4615790E-09
   .0000000E+00   .0000000E+00   .8160000E+01   .4235658E-01   .2557414E-02   .4541665E-02   .2793423E-02   .5853870E-01  -.4615790E-09
   .0000000E+00   .0000000E+00   .8320000E+01   .4307218E-01   .2557414E-02   .4689413E-02   .2884622E-02   .5993232E-01  -.4615790E-09
   .0000000E+00   .0000000E+00   .8480000E+01   .4378446E-01   .2557414E-02   .4838669E-02   .2976764E-02   .6132780E-01  -.4615790E-09
   .0000000E+00   .0000000E+00   .8640000E+01   .4449306E-01   .2557414E-02   .4989318E-02   .3069779E-02   .6272425E-01  -.4615790E-09
   .0000000E+00   .0000000E+00   .8800000E+01   .4519760E-01   .2557414E-02   .5141244E-02   .3163594E-02   .6412082E-01  -.4615790E-09
   .0000000E+00   .0000000E+00   .8960000E+01   .4589774E-01   .2557414E-02   .5294330E-02   .3258138E-02   .6551666E-01  -.4615790E-09
   .0000000E+00   .0000000E+00   .9120000E+01   .4659314E-01   .2557414E-02   .5448460E-02   .3353338E-02   .6691095E-01  -.4615790E-09
   .0000000E+00   .0000000E+00   .9280000E+01   .4728349E-01   .2557414E-02   .5603521E-02   .3449125E-02   .6830288E-01  -.4615790E-09
   .0000000E+00   .0000000E+00   .9440000E+01   .4796850E-01   .2557414E-02   .5759396E-02   .3545426E-02   .6969168E-01  -.4615790E-09
   .0000000E+00   .0000000E+00   .9600000E+01   .4864789E-01   .2557414E-02   .5915973E-02   .3642172E-02   .7107658E-01  -.4615790E-09
   .0000000E+00   .0000000E+00   .9760000E+01   .4932139E-01   .2557414E-02   .6073139E-02   .3739292E-02   .7245686E-01  -.4615790E-09
   .0000000E+00   .0000000E+00   .9920000E+01   .4998874E-01   .2557414E-02   .6230782E-02   .3836717E-02   .7383179E-01  -.4615790E-09
   .0000000E+00   .0000000E+00   .1008000E+02   .5064971E-01   .2557414E-02   .6388792E-02   .3934380E-02   .7520068E-01  -.4615790E-09
   .0000000E+00   .0000000E+00   .1024000E+02   .5130408E-01   .2557414E-02   .6547058E-02   .4032210E-02   .7656285E-01  -.4615790E-09
   .0000000E+00   .0000000E+00   .1040000E+02   .5195162E-01   .2557414E-02   .6705472E-02   .4130142E-02   .7791763E-01  -.4615790E-09
   .0000000E+00   .0000000E+00   .1056000E+02   .5259213E-01   .2557414E-02   .6863927E-02   .4228109E-02   .7926438E-01  -.4615790E-09
   .0000000E+00   .0000000E+00   .1072000E+02   .5322542E-01   .2557414E-02   .7022316E-02   .4326043E-02   .8060247E-01  -.4615790E-09
   .0000000E+00   .0000000E+00   .1088000E+02   .5385130E-01   .2557414E-02   .7180531E-02   .4423879E-02   .8193127E-01  -.4615790E-09
   .0000000E+00   .0000000E+00   .1104000E+02   .5446959E-01   .2557414E-02   .7338466E-02   .4521550E-02   .8325016E-01  -.4615790E-09
   .0000000E+00   .0000000E+00   .1120000E+02   .5508011E-01   .2557414E-02   .7496016E-02   .4618991E-02   .8455854E-01  -.4615790E-09
   .0000000E+00   .0000000E+00   .1136000E+02   .5568267E-01   .2557414E-02   .7653072E-02   .4716135E-02   .8585580E-01  -.4615790E-09
   .0000000E+00   .0000000E+00   .1152000E+02   .5627712E-01   .2557414E-02   .7809528E-02   .4812915E-02   .8714132E-01  -.4615790E-09
   .0000000E+00   .0000000E+00   .1168000E+02   .5686327E-01   .2557414E-02   .7965271E-02   .4909262E-02   .8841447E-01  -.4615790E-09
   .0000000E+00   .0000000E+00   .1184000E+02   .5744093E-01   .2557414E-02   .8120190E-02   .5005106E-02   .8967462E-01  -.4615790E-09
   .0000000E+00   .0000000E+00   .1200000E+02   .5800991E-01   .2557414E-02   .8274169E-02   .5100374E-02   .9092109E-01  -.4615790E-09
   .0000000E+00   .0000000E+00   .1216000E+02   .5857002E-01   .2557414E-02   .8427085E-02   .5194993E-02   .9215320E-01  -.4615790E-09
   .0000000E+00   .0000000E+00   .1232000E+02   .5912101E-01   .2557414E-02   .8578811E-02   .5288881E-02   .9337018E-01  -.4615790E-09
   .0000000E+00   .0000000E+00   .1248000E+02   .5966266E-01   .2557414E-02   .8729212E-02   .5381956E-02   .9457126E-01  -.4615790E-09
   .0000000E+00   .0000000E+00   .1264000E+02   .6019468E-01   .2557414E-02   .8878142E-02   .5474127E-02   .9575554E-01  -.4615790E-09
   .0000000E+00   .0000000E+00   .1280000E+02   .6071675E-01   .2557414E-02   .9025445E-02   .5565297E-02   .9692208E-01  -.4615790E-09
   .0000000E+00   .0000000E+00   .1296000E+02   .6122854E-01   .2557414E-02   .9170946E-02   .5655358E-02   .9806980E-01  -.4615790E-09
   .0000000E+00   .0000000E+00   .1312000E+02   .6172961E-01   .2557414E-02   .9314457E-02   .5744193E-02   .9919750E-01  -.4615790E-09
   .0000000E+00   .0000000E+00   .1328000E+02   .6221950E-01   .2557414E-02   .9455765E-02   .5831670E-02   .1003038E+00  -.4615790E-09
   .0000000E+00   .0000000E+00   .1344000E+02   .6269764E-01   .2557414E-02   .9594631E-02   .5917641E-02   .1013872E+00  -.4615790E-09
   .0000000E+00   .0000000E+00   .1360000E+02   .6316338E-01   .2557414E-02   .9730786E-02   .6001940E-02   .1024459E+00  -.4615790E-09
   .0000000E+00   .0000000E+00   .1376000E+02   .6361596E-01   .2557414E-02   .9863924E-02   .6084376E-02   .1034778E+00  -.4615790E-09
   .0000000E+00   .0000000E+00   .1392000E+02   .6405446E-01   .2557414E-02   .9993691E-02   .6164731E-02   .1044805E+00  -.4615790E-09
   .0000000E+00   .0000000E+00   .1408000E+02   .6447781E-01   .2557414E-02   .1011969E-01   .6242755E-02   .1054513E+00  -.4615790E-09
   .0000000E+00   .0000000E+00   .1424000E+02   .6488474E-01   .2557414E-02   .1024144E-01   .6318158E-02   .1063869E+00  -.4615790E-09
   .0000000E+00   .0000000E+00   .1440000E+02   .6527375E-01   .2557414E-02   .1035841E-01   .6390606E-02   .1072835E+00  -.4615790E-09
   .0000000E+00   .0000000E+00   .1456000E+02   .6564308E-01   .2557414E-02   .1046997E-01   .6459708E-02   .1081367E+00  -.4615790E-09
   .0000000E+00   .0000000E+00   .1472000E+02   .6599061E-01   .2557414E-02   .1057540E-01   .6525012E-02   .1089412E+00  -.4615790E-09
   .0000000E+00   .0000000E+00   .1488000E+02   .6631387E-01   .2557414E-02   .1067383E-01   .6585989E-02   .1096910E+00  -.4615790E-09
   .0000000E+00   .0000000E+00   .1504000E+02   .6660990E-01   .2557414E-02   .1076428E-01   .6642025E-02   .1103787E+00  -.4615790E-09
   .0000000E+00   .0000000E+00   .1520000E+02   .6687521E-01   .2557414E-02   .1084559E-01   .6692398E-02   .1109961E+00  -.4615790E-09
   .0000000E+00   .0000000E+00   .1536000E+02   .6710569E-01   .2557414E-02   .1091639E-01   .6736267E-02   .1115330E+00  -.4615790E-09
   .0000000E+00   .0000000E+00   .1552000E+02   .6729644E-01   .2557414E-02   .1097511E-01   .6772649E-02   .1119778E+00  -.4615790E-09
   .0000000E+00   .0000000E+00   .1568000E+02   .6744167E-01   .2557414E-02   .1101988E-01   .6800393E-02   .1123168E+00  -.4615790E-09
   .0000000E+00   .0000000E+00   .1584000E+02   .6753454E-01   .2557414E-02   .1104854E-01   .6818154E-02   .1125336E+00  -.4615790E-09
   .0000000E+00   .0000000E+00   .1600000E+02   .6756696E-01   .2557414E-02   .1105855E-01   .6824357E-02   .1126093E+00  -.4615790E-09
