title = "dataset ionx"						
variables = "Volume [m^3]","na+1","k+1","mg+2","ca+2","cl-1","h+1"						
zone t = "T_j, volume =   101", f=point						
0.000000E+00	1.990000E+03	1.000000E+02	4.360000E+02	4.439998E+02	5.699999E+03	-4.652716E-07
5.760000E-06	1.990000E+03	1.000000E+02	4.360000E+02	4.439998E+02	5.699999E+03	-4.652716E-07
2.099953E-05	1.990000E+03	1.000000E+02	4.360000E+02	4.439998E+02	5.699999E+03	-4.652716E-07
6.131952E-05	1.990000E+03	1.000000E+02	4.360000E+02	4.439998E+02	5.699999E+03	-4.652716E-07
1.679962E-04	1.990000E+03	1.000000E+02	4.360000E+02	4.439998E+02	5.699999E+03	-4.652716E-07
4.502362E-04	1.990000E+03	1.000000E+02	4.360000E+02	4.439998E+02	5.699999E+03	-4.652716E-07
1.196973E-03	1.990000E+03	1.000000E+02	4.360000E+02	4.439998E+02	5.699999E+03	-4.652716E-07
3.172654E-03	1.990000E+03	1.000000E+02	4.360000E+02	4.439998E+02	5.699999E+03	-4.652716E-07
8.399810E-03	1.990000E+03	1.000000E+02	4.360000E+02	4.439998E+02	5.699999E+03	-4.652716E-07
1.969176E-02	1.990000E+03	1.000000E+02	4.360000E+02	4.439998E+02	5.699999E+03	-4.652716E-07
4.408517E-02	1.990000E+03	1.000000E+02	4.360000E+02	4.439998E+02	5.699999E+03	-4.652716E-07
9.678094E-02	1.990000E+03	1.000000E+02	4.360000E+02	4.439998E+02	5.699999E+03	-4.652716E-07
2.106168E-01	1.990000E+03	1.000000E+02	4.360000E+02	4.439998E+02	5.699999E+03	-4.652716E-07
4.565304E-01	1.990000E+03	1.000000E+02	4.360000E+02	4.439998E+02	5.699999E+03	-4.652716E-07
9.877644E-01	1.990000E+03	1.000000E+02	4.360000E+02	4.439998E+02	5.699999E+03	-4.652716E-07
1.981612E+00	1.990000E+03	1.000000E+02	4.360000E+02	4.439998E+02	5.699999E+03	-4.652716E-07
3.840931E+00	1.990000E+03	1.000000E+02	4.360000E+02	4.439998E+02	5.699999E+03	-4.652716E-07
7.319398E+00	1.990000E+03	1.000000E+02	4.360000E+02	4.439998E+02	5.699999E+03	-4.652716E-07
1.382701E+01	1.990000E+03	1.000000E+02	4.360000E+02	4.439998E+02	5.699999E+03	-4.652716E-07
2.600165E+01	1.989992E+03	1.000000E+02	4.359966E+02	4.439966E+02	5.699967E+03	-4.652716E-07
4.877830E+01	1.989054E+03	1.000000E+02	4.355857E+02	4.435782E+02	5.696014E+03	-4.652716E-07
8.689094E+01	1.971361E+03	1.000000E+02	4.278924E+02	4.357417E+02	5.621768E+03	-4.652716E-07
1.506656E+02	1.851933E+03	1.000000E+02	3.782991E+02	3.851792E+02	5.133371E+03	-4.652716E-07
2.400000E+02	1.553351E+03	1.000000E+02	2.688557E+02	2.735202E+02	3.992338E+03	-4.652716E-07
3.594398E+02	1.126771E+03	1.000000E+02	1.445791E+02	1.468356E+02	2.539268E+03	-4.652716E-07
5.163290E+02	7.248360E+02	1.000000E+02	6.121322E+01	6.205827E+01	1.356467E+03	-4.652716E-07
7.191833E+02	4.656437E+02	1.000000E+02	2.556392E+01	2.589295E+01	6.936255E+02	-4.652716E-07
9.863652E+02	3.490665E+02	1.000000E+02	1.441901E+01	1.460033E+01	4.224225E+02	-4.652716E-07
1.433446E+03	3.109419E+02	1.000000E+02	1.146392E+01	1.160621E+01	3.375226E+02	-4.652716E-07
2.269858E+03	3.036562E+02	1.000000E+02	1.096289E+01	1.109646E+01	3.216441E+02	-4.652716E-07
2.400000E+03	3.031902E+02	1.000000E+02	1.093381E+01	1.106665E+01	3.206443E+02	-4.652716E-07
2.681141E+03	3.029391E+02	1.000000E+02	1.092544E+01	1.105736E+01	3.201446E+02	-4.652716E-07
3.288470E+03	3.028187E+02	1.000000E+02	1.094253E+01	1.107244E+01	3.200167E+02	-4.652716E-07
4.424683E+03	3.023058E+02	1.000000E+02	1.111480E+01	1.122784E+01	3.200011E+02	-4.652716E-07
5.624683E+03	3.001955E+02	1.000000E+02	1.183668E+01	1.187685E+01	3.200001E+02	-4.652716E-07
6.824683E+03	2.941405E+02	1.000000E+02	1.391367E+01	1.373078E+01	3.200000E+02	-4.652716E-07
8.024683E+03	2.814418E+02	1.000000E+02	1.828884E+01	1.758735E+01	3.200000E+02	-4.652716E-07
9.224683E+03	2.632994E+02	1.000000E+02	2.457148E+01	2.304465E+01	3.200000E+02	-4.652716E-07
1.042468E+04	2.458421E+02	1.000000E+02	3.063927E+01	2.825886E+01	3.200000E+02	-4.652716E-07
1.162468E+04	2.334290E+02	1.000000E+02	3.495387E+01	3.196618E+01	3.200000E+02	-4.652716E-07
1.282468E+04	2.260619E+02	1.000000E+02	3.749197E+01	3.420391E+01	3.200000E+02	-4.652716E-07
1.402468E+04	2.220757E+02	1.000000E+02	3.881814E+01	3.549232E+01	3.200000E+02	-4.652716E-07
1.522468E+04	2.200106E+02	1.000000E+02	3.942835E+01	3.628646E+01	3.200000E+02	-4.652716E-07
1.642468E+04	2.189594E+02	1.000000E+02	3.962533E+01	3.687812E+01	3.200000E+02	-4.652716E-07
1.762468E+04	2.184241E+02	1.000000E+02	3.956795E+01	3.743931E+01	3.200000E+02	-4.652716E-07
1.882468E+04	2.181453E+02	1.000000E+02	3.933149E+01	3.807212E+01	3.200000E+02	-4.652716E-07
2.002468E+04	2.179907E+02	1.000000E+02	3.894748E+01	3.883994E+01	3.200000E+02	-4.652716E-07
2.122468E+04	2.178935E+02	1.000000E+02	3.842626E+01	3.978394E+01	3.200000E+02	-4.652716E-07
2.242468E+04	2.178201E+02	1.000000E+02	3.776957E+01	4.093050E+01	3.200000E+02	-4.652716E-07
2.362468E+04	2.177538E+02	1.000000E+02	3.697739E+01	4.229430E+01	3.200000E+02	-4.652716E-07
2.400000E+04	2.177336E+02	1.000000E+02	3.671455E+01	4.274520E+01	3.200000E+02	-4.652716E-07
2.481077E+04	2.176887E+02	1.000000E+02	3.608620E+01	4.382019E+01	3.200000E+02	-4.652716E-07
2.601077E+04	2.176164E+02	1.000000E+02	3.503097E+01	4.562282E+01	3.200000E+02	-4.652716E-07
2.721077E+04	2.175376E+02	1.000000E+02	3.385935E+01	4.762306E+01	3.200000E+02	-4.652716E-07
2.841077E+04	2.174526E+02	1.000000E+02	3.258832E+01	4.979255E+01	3.200000E+02	-4.652716E-07
2.961077E+04	2.173623E+02	1.000000E+02	3.123946E+01	5.209494E+01	3.200000E+02	-4.652716E-07
3.081077E+04	2.172680E+02	1.000000E+02	2.983780E+01	5.448788E+01	3.200000E+02	-4.652716E-07
3.201077E+04	2.171713E+02	1.000000E+02	2.841001E+01	5.692598E+01	3.200000E+02	-4.652716E-07
3.321077E+04	2.170739E+02	1.000000E+02	2.698270E+01	5.936385E+01	3.200000E+02	-4.652716E-07
3.441077E+04	2.169775E+02	1.000000E+02	2.558082E+01	6.175895E+01	3.200000E+02	-4.652716E-07
3.561077E+04	2.168837E+02	1.000000E+02	2.422625E+01	6.407385E+01	3.200000E+02	-4.652716E-07
3.681077E+04	2.167937E+02	1.000000E+02	2.293694E+01	6.627781E+01	3.200000E+02	-4.652716E-07
3.801077E+04	2.167086E+02	1.000000E+02	2.172642E+01	6.834766E+01	3.200000E+02	-4.652716E-07
3.921077E+04	2.166291E+02	1.000000E+02	2.060383E+01	7.026765E+01	3.200000E+02	-4.652716E-07
4.041077E+04	2.165557E+02	1.000000E+02	1.957422E+01	7.202901E+01	3.200000E+02	-4.652716E-07
4.161077E+04	2.164886E+02	1.000000E+02	1.863912E+01	7.362908E+01	3.200000E+02	-4.652716E-07
4.281077E+04	2.164278E+02	1.000000E+02	1.779716E+01	7.507008E+01	3.200000E+02	-4.652716E-07
4.401077E+04	2.163732E+02	1.000000E+02	1.704480E+01	7.635793E+01	3.200000E+02	-4.652716E-07
4.521077E+04	2.163246E+02	1.000000E+02	1.637694E+01	7.750137E+01	3.200000E+02	-4.652716E-07
4.641077E+04	2.162814E+02	1.000000E+02	1.578751E+01	7.851071E+01	3.200000E+02	-4.652716E-07
4.761077E+04	2.162434E+02	1.000000E+02	1.526988E+01	7.939720E+01	3.200000E+02	-4.652716E-07
4.881077E+04	2.162100E+02	1.000000E+02	1.481728E+01	8.017242E+01	3.200000E+02	-4.652716E-07
5.001077E+04	2.161809E+02	1.000000E+02	1.442302E+01	8.084781E+01	3.200000E+02	-4.652716E-07
5.121077E+04	2.161555E+02	1.000000E+02	1.408068E+01	8.143430E+01	3.200000E+02	-4.652716E-07
5.241077E+04	2.161335E+02	1.000000E+02	1.378426E+01	8.194216E+01	3.200000E+02	-4.652716E-07
5.361077E+04	2.161145E+02	1.000000E+02	1.352823E+01	8.238083E+01	3.200000E+02	-4.652716E-07
5.481077E+04	2.160980E+02	1.000000E+02	1.330754E+01	8.275899E+01	3.200000E+02	-4.652716E-07
5.601077E+04	2.160838E+02	1.000000E+02	1.311766E+01	8.308440E+01	3.200000E+02	-4.652716E-07
5.721077E+04	2.160716E+02	1.000000E+02	1.295456E+01	8.336387E+01	3.200000E+02	-4.652716E-07
5.841077E+04	2.160612E+02	1.000000E+02	1.281465E+01	8.360367E+01	3.200000E+02	-4.652716E-07
5.961077E+04	2.160522E+02	1.000000E+02	1.269479E+01	8.380912E+01	3.200000E+02	-4.652716E-07
6.081077E+04	2.160445E+02	1.000000E+02	1.259220E+01	8.398491E+01	3.200000E+02	-4.652716E-07
6.201077E+04	2.160379E+02	1.000000E+02	1.250449E+01	8.413525E+01	3.200000E+02	-4.652716E-07
6.321077E+04	2.160323E+02	1.000000E+02	1.242955E+01	8.426371E+01	3.200000E+02	-4.652716E-07
6.441077E+04	2.160275E+02	1.000000E+02	1.236559E+01	8.437333E+01	3.200000E+02	-4.652716E-07
6.561077E+04	2.160234E+02	1.000000E+02	1.231102E+01	8.446688E+01	3.200000E+02	-4.652716E-07
6.681077E+04	2.160199E+02	1.000000E+02	1.226450E+01	8.454660E+01	3.200000E+02	-4.652716E-07
6.801077E+04	2.160169E+02	1.000000E+02	1.222486E+01	8.461457E+01	3.200000E+02	-4.652716E-07
6.921077E+04	2.160144E+02	1.000000E+02	1.219110E+01	8.467245E+01	3.200000E+02	-4.652716E-07
7.041077E+04	2.160122E+02	1.000000E+02	1.216236E+01	8.472171E+01	3.200000E+02	-4.652716E-07
7.161077E+04	2.160104E+02	1.000000E+02	1.213790E+01	8.476363E+01	3.200000E+02	-4.652716E-07
7.281077E+04	2.160088E+02	1.000000E+02	1.211710E+01	8.479926E+01	3.200000E+02	-4.652716E-07
7.401077E+04	2.160075E+02	1.000000E+02	1.209943E+01	8.482956E+01	3.200000E+02	-4.652716E-07
7.521077E+04	2.160063E+02	1.000000E+02	1.208440E+01	8.485533E+01	3.200000E+02	-4.652716E-07
7.641077E+04	2.160054E+02	1.000000E+02	1.207162E+01	8.487722E+01	3.200000E+02	-4.652716E-07
7.761077E+04	2.160046E+02	1.000000E+02	1.206077E+01	8.489585E+01	3.200000E+02	-4.652716E-07
7.881077E+04	2.160039E+02	1.000000E+02	1.205155E+01	8.491164E+01	3.200000E+02	-4.652716E-07
8.001077E+04	2.160033E+02	1.000000E+02	1.204372E+01	8.492507E+01	3.200000E+02	-4.652716E-07
8.121077E+04	2.160028E+02	1.000000E+02	1.203708E+01	8.493645E+01	3.200000E+02	-4.652716E-07
8.241077E+04	2.160024E+02	1.000000E+02	1.203144E+01	8.494611E+01	3.200000E+02	-4.652716E-07
8.361077E+04	2.160020E+02	1.000000E+02	1.202665E+01	8.495433E+01	3.200000E+02	-4.652716E-07
8.400000E+04	2.160019E+02	1.000000E+02	1.202518E+01	8.495685E+01	3.200000E+02	-4.652716E-07
