VARIABLES = "x"
 "y"
 "z"
 "H+ - P"
 "Cl- - P"
 "Na+ - P"
 "NO3- - P"
ZONE
0.000	0.000	0.000 	1.0000E-004	  1.0000E-004	    1.0000E-004	  1.0000E-004
0.005	0.000	0.000 	9.8367e-005	  1.0012e-004 	9.9864e-005	  9.8114e-005
0.015	0.000	0.000 	9.5379e-005	  1.0037e-004 	9.9577e-005	  9.4588e-005
0.025	0.000	0.000 	9.2418e-005	  1.0065e-004 	9.9274e-005	  9.1046e-005
0.035	0.000	0.000 	8.9488e-005	  1.0095e-004 	9.8957e-005	  8.7495e-005
0.045	0.000	0.000 	8.6593e-005	  1.0127e-004 	9.8628e-005	  8.3945e-005
0.055	0.000	0.000 	8.3734e-005	  1.0162e-004 	9.8292e-005	  8.0403e-005
0.065	0.000	0.000 	8.0917e-005	  1.0199e-004 	9.7951e-005	  7.6878e-005
0.075	0.000	0.000 	7.8144e-005	  1.0237e-004 	9.7609e-005	  7.3378e-005
0.085	0.000	0.000 	7.5418e-005	  1.0277e-004 	9.7268e-005	  6.9912e-005
0.095	0.000	0.000 	7.2740e-005	  1.0318e-004 	9.6931e-005	  6.6488e-005
0.105	0.000	0.000 	7.0115e-005	  1.0360e-004 	9.6602e-005	  6.3113e-005
0.115	0.000	0.000 	6.7544e-005	  1.0403e-004 	9.6282e-005	  5.9796e-005
0.125	0.000	0.000 	6.5029e-005	  1.0446e-004 	9.5974e-005	  5.6543e-005
0.135	0.000	0.000 	6.2571e-005	  1.0489e-004 	9.5681e-005	  5.3362e-005
0.145	0.000	0.000 	6.0173e-005	  1.0532e-004 	9.5404e-005	  5.0260e-005
0.155	0.000	0.000 	5.7836e-005	  1.0574e-004 	9.5145e-005	  4.7241e-005
0.165	0.000	0.000 	5.5560e-005	  1.0615e-004 	9.4905e-005	  4.4313e-005
0.175	0.000	0.000 	5.3348e-005	  1.0655e-004 	9.4686e-005	  4.1480e-005
0.185	0.000	0.000 	5.1198e-005	  1.0694e-004 	9.4489e-005	  3.8746e-005
0.195	0.000	0.000 	4.9112e-005	  1.0731e-004 	9.4314e-005	  3.6116e-005
0.205	0.000	0.000 	4.7090e-005	  1.0766e-004 	9.4162e-005	  3.3592e-005
0.215	0.000	0.000 	4.5132e-005	  1.0799e-004 	9.4032e-005	  3.1177e-005
0.225	0.000	0.000 	4.3238e-005	  1.0829e-004 	9.3926e-005	  2.8873e-005
0.235	0.000	0.000 	4.1407e-005	  1.0857e-004 	9.3842e-005	  2.6682e-005
0.245	0.000	0.000 	3.9640e-005	  1.0881e-004 	9.3780e-005	  2.4604e-005
0.255	0.000	0.000 	3.7935e-005	  1.0903e-004 	9.3740e-005	  2.2639e-005
0.265	0.000	0.000 	3.6291e-005	  1.0922e-004 	9.3720e-005	  2.0786e-005
0.275	0.000	0.000 	3.4708e-005	  1.0938e-004 	9.3720e-005	  1.9046e-005
0.285	0.000	0.000 	3.3184e-005	  1.0951e-004 	9.3739e-005	  1.7415e-005
0.295	0.000	0.000 	3.1719e-005	  1.0960e-004 	9.3776e-005	  1.5891e-005
0.305	0.000	0.000 	3.0311e-005	  1.0966e-004 	9.3829e-005	  1.4473e-005
0.315	0.000	0.000 	2.8958e-005	  1.0970e-004 	9.3898e-005	  1.3158e-005
0.325	0.000	0.000 	2.7660e-005	  1.0970e-004 	9.3980e-005	  1.1940e-005
0.335	0.000	0.000 	2.6414e-005	  1.0967e-004 	9.4076e-005	  1.0818e-005
0.345	0.000	0.000 	2.5220e-005	  1.0961e-004 	9.4182e-005	  9.7863e-006
0.355	0.000	0.000 	2.4075e-005	  1.0953e-004 	9.4299e-005	  8.8414e-006
0.365	0.000	0.000 	2.2979e-005	  1.0942e-004 	9.4425e-005	  7.9787e-006
0.375	0.000	0.000 	2.1929e-005	  1.0929e-004 	9.4558e-005	  7.1936e-006
0.385	0.000	0.000 	2.0925e-005	  1.0914e-004 	9.4698e-005	  6.4815e-006
0.395	0.000	0.000 	1.9964e-005	  1.0897e-004 	9.4843e-005	  5.8379e-006
0.405	0.000	0.000 	1.9045e-005	  1.0878e-004 	9.4992e-005	  5.2579e-006
0.415	0.000	0.000 	1.8166e-005	  1.0857e-004 	9.5144e-005	  4.7372e-006
0.425	0.000	0.000 	1.7326e-005	  1.0835e-004 	9.5299e-005	  4.2711e-006
0.435	0.000	0.000 	1.6523e-005	  1.0812e-004 	9.5456e-005	  3.8553e-006
0.445	0.000	0.000 	1.5757e-005	  1.0788e-004 	9.5613e-005	  3.4857e-006
0.455	0.000	0.000 	1.5025e-005	  1.0763e-004 	9.5769e-005	  3.1582e-006
0.465	0.000	0.000 	1.4326e-005	  1.0738e-004 	9.5926e-005	  2.8689e-006
0.475	0.000	0.000 	1.3659e-005	  1.0712e-004 	9.6081e-005	  2.6142e-006
0.485	0.000	0.000 	1.3022e-005	  1.0686e-004 	9.6234e-005	  2.3908e-006
0.495	0.000	0.000 	1.2415e-005	  1.0660e-004 	9.6385e-005	  2.1954e-006
0.505	0.000	0.000 	1.1836e-005	  1.0634e-004 	9.6533e-005	  2.0250e-006
0.515	0.000	0.000 	1.1283e-005	  1.0608e-004 	9.6678e-005	  1.8769e-006
0.525	0.000	0.000 	1.0757e-005	  1.0583e-004 	9.6820e-005	  1.7487e-006
0.535	0.000	0.000 	1.0255e-005	  1.0557e-004 	9.6958e-005	  1.6379e-006
0.545	0.000	0.000 	9.7764e-006	  1.0532e-004 	9.7093e-005	  1.5425e-006
0.555	0.000	0.000 	9.3208e-006	  1.0508e-004 	9.7224e-005	  1.4606e-006
0.565	0.000	0.000 	8.8868e-006	  1.0484e-004 	9.7351e-005	  1.3905e-006
0.575	0.000	0.000 	8.4735e-006	  1.0461e-004 	9.7474e-005	  1.3306e-006
0.585	0.000	0.000 	8.0802e-006	  1.0439e-004 	9.7593e-005	  1.2797e-006
0.595	0.000	0.000 	7.7058e-006	  1.0417e-004 	9.7708e-005	  1.2364e-006
0.605	0.000	0.000 	7.3497e-006	  1.0396e-004 	9.7818e-005	  1.1998e-006
0.615	0.000	0.000 	7.0110e-006	  1.0376e-004 	9.7925e-005	  1.1689e-006
0.625	0.000	0.000 	6.6890e-006	  1.0357e-004 	9.8027e-005	  1.1428e-006
0.635	0.000	0.000 	6.3829e-006	  1.0338e-004 	9.8125e-005	  1.1208e-006
0.645	0.000	0.000 	6.0922e-006	  1.0320e-004 	9.8219e-005	  1.1024e-006
0.655	0.000	0.000 	5.8161e-006	  1.0303e-004 	9.8310e-005	  1.0869e-006
0.665	0.000	0.000 	5.5540e-006	  1.0287e-004 	9.8396e-005	  1.0740e-006
0.675	0.000	0.000 	5.3054e-006	  1.0272e-004 	9.8478e-005	  1.0632e-006
0.685	0.000	0.000 	5.0696e-006	  1.0257e-004 	9.8557e-005	  1.0541e-006
0.695	0.000	0.000 	4.8462e-006	  1.0243e-004 	9.8632e-005	  1.0465e-006
0.705	0.000	0.000 	4.6346e-006	  1.0229e-004 	9.8704e-005	  1.0402e-006
0.715	0.000	0.000 	4.4343e-006	  1.0217e-004 	9.8772e-005	  1.0349e-006
0.725	0.000	0.000 	4.2448e-006	  1.0205e-004 	9.8837e-005	  1.0305e-006
0.735	0.000	0.000 	4.0658e-006	  1.0193e-004 	9.8899e-005	  1.0267e-006
0.745	0.000	0.000 	3.8968e-006	  1.0183e-004 	9.8957e-005	  1.0236e-006
0.755	0.000	0.000 	3.7374e-006	  1.0172e-004 	9.9013e-005	  1.0209e-006
0.765	0.000	0.000 	3.5871e-006	  1.0163e-004 	9.9065e-005	  1.0187e-006
0.775	0.000	0.000 	3.4457e-006	  1.0154e-004 	9.9115e-005	  1.0168e-006
0.785	0.000	0.000 	3.3128e-006	  1.0145e-004 	9.9161e-005	  1.0152e-006
0.795	0.000	0.000 	3.1881e-006	  1.0137e-004 	9.9205e-005	  1.0138e-006
0.805	0.000	0.000 	3.0712e-006	  1.0130e-004 	9.9247e-005	  1.0126e-006
0.815	0.000	0.000 	2.9619e-006	  1.0123e-004 	9.9286e-005	  1.0115e-006
0.825	0.000	0.000 	2.8599e-006	  1.0117e-004 	9.9322e-005	  1.0106e-006
0.835	0.000	0.000 	2.7650e-006	  1.0111e-004 	9.9356e-005	  1.0098e-006
0.845	0.000	0.000 	2.6768e-006	  1.0105e-004 	9.9387e-005	  1.0091e-006
0.855	0.000	0.000 	2.5952e-006	  1.0100e-004 	9.9416e-005	  1.0085e-006
0.865	0.000	0.000 	2.5200e-006	  1.0095e-004 	9.9444e-005	  1.0080e-006
0.875	0.000	0.000 	2.4510e-006	  1.0091e-004 	9.9468e-005	  1.0075e-006
0.885	0.000	0.000 	2.3879e-006	  1.0087e-004 	9.9491e-005	  1.0071e-006
0.895	0.000	0.000 	2.3307e-006	  1.0083e-004 	9.9512e-005	  1.0067e-006
0.905	0.000	0.000 	2.2791e-006	  1.0080e-004 	9.9530e-005	  1.0064e-006
0.915	0.000	0.000 	2.2331e-006	  1.0077e-004 	9.9547e-005	  1.0061e-006
0.925	0.000	0.000 	2.1925e-006	  1.0074e-004 	9.9562e-005	  1.0058e-006
0.935	0.000	0.000 	2.1572e-006	  1.0072e-004 	9.9575e-005	  1.0056e-006
0.945	0.000	0.000 	2.1272e-006	  1.0070e-004 	9.9585e-005	  1.0054e-006
0.955	0.000	0.000 	2.1022e-006	  1.0068e-004 	9.9595e-005	  1.0053e-006
0.965	0.000	0.000 	2.0824e-006	  1.0067e-004 	9.9602e-005	  1.0052e-006
0.975	0.000	0.000 	2.0675e-006	  1.0066e-004 	9.9607e-005	  1.0051e-006
0.985	0.000	0.000 	2.0577e-006	  1.0066e-004 	9.9611e-005	  1.0050e-006
0.995	0.000	0.000 	2.0527e-006	  1.0065e-004 	9.9613e-005	  1.0050e-006
1.000	0.000	0.000 	1.0000E-006	  1.0000E-004	    1.0000E-004	  1.0000E-006
