title = "dataset surfme"
variables = "pH","h+1","me+2","=soh"
zone t = "T_j, pH-sweep from 0-14", f=point
  0.0000000E+00  0.1000000E+01  0.1000000E-06  0.9999465E-08
  0.2800000E+00  0.5248075E+00  0.1000000E-06  0.1905186E-07
  0.5600000E+00  0.2754229E+00  0.1000000E-06  0.3629632E-07
  0.8400000E+00  0.1445440E+00  0.1000000E-06  0.6913848E-07
  0.1120000E+01  0.7585776E-01  0.9999998E-07  0.1316582E-06
  0.1400000E+01  0.3981072E-01  0.9999994E-07  0.2505709E-06
  0.1680000E+01  0.2089296E-01  0.9999977E-07  0.4763723E-06
  0.1960000E+01  0.1096478E-01  0.9999918E-07  0.9038104E-06
  0.2240000E+01  0.5754399E-02  0.9999703E-07  0.1708197E-05
  0.2520000E+01  0.3019952E-02  0.9998939E-07  0.3205326E-05
  0.2800000E+01  0.1584893E-02  0.9996256E-07  0.5935368E-05
  0.3080000E+01  0.8317638E-03  0.9987113E-07  0.1073282E-04
  0.3360000E+01  0.4365158E-03  0.9957481E-07  0.1863956E-04
  0.3640000E+01  0.2290867E-03  0.9869088E-07  0.3038810E-04
  0.3920000E+01  0.1202264E-03  0.9636058E-07  0.4540809E-04
  0.4200000E+01  0.6309558E-04  0.9114353E-07  0.6131051E-04
  0.4480000E+01  0.3311281E-04  0.8151058E-07  0.7511198E-04
  0.4760000E+01  0.1737743E-04  0.6711037E-07  0.8516660E-04
  0.5040000E+01  0.9119007E-05  0.4989327E-07  0.9159128E-04
  0.5320000E+01  0.4784202E-05  0.3341987E-07  0.9535421E-04
  0.5600000E+01  0.2507887E-05  0.2049555E-07  0.9743880E-04
  0.5880000E+01  0.1310636E-05  0.1179910E-07  0.9854265E-04
  0.6160000E+01  0.6773099E-06  0.6526659E-08  0.9908248E-04
  0.6440000E+01  0.3354086E-06  0.3528281E-08  0.9927431E-04
  0.6720000E+01  0.1378231E-06  0.1884684E-08  0.9919693E-04
  0.7000000E+01 -0.4615790E-09  0.1001817E-08  0.9881865E-04
  0.7280000E+01 -0.1389448E-06  0.5327374E-09  0.9798666E-04
  0.7560000E+01 -0.3372117E-06  0.2849561E-09  0.9637908E-04
  0.7840000E+01 -0.6805699E-06  0.1544732E-09  0.9342768E-04
  0.8120000E+01 -0.1316756E-05  0.8587158E-10  0.8826274E-04
  0.8400000E+01 -0.2519500E-05  0.4983497E-10  0.7984529E-04
  0.8680000E+01 -0.4806304E-05  0.3091331E-10  0.6756475E-04
  0.8960000E+01 -0.9161108E-05  0.2098050E-10  0.5225080E-04
  0.9240000E+01 -0.1745765E-04  0.1576698E-10  0.3649077E-04
  0.9520000E+01 -0.3326565E-04  0.1303069E-10  0.2317267E-04
  0.9800000E+01 -0.6338681E-04  0.1159461E-10  0.1366764E-04
  0.1008000E+02 -0.1207813E-03  0.1084093E-10  0.7671610E-05
  0.1036000E+02 -0.2301441E-03  0.1044538E-10  0.4178594E-05
  0.1064000E+02 -0.4385307E-03  0.1023780E-10  0.2237427E-05
  0.1092000E+02 -0.8356030E-03  0.1012886E-10  0.1186849E-05
  0.1120000E+02 -0.1592209E-02  0.1007168E-10  0.6264034E-06
  0.1148000E+02 -0.3033891E-02  0.1004168E-10  0.3297236E-06
  0.1176000E+02 -0.5780960E-02  0.1002593E-10  0.1733132E-06
  0.1204000E+02 -0.1101539E-01  0.1001767E-10  0.9103111E-07
  0.1232000E+02 -0.2098940E-01  0.1001333E-10  0.4779450E-07
  0.1260000E+02 -0.3999447E-01  0.1001106E-10  0.2508861E-07
  0.1288000E+02 -0.7620790E-01  0.1000986E-10  0.1316826E-07
  0.1316000E+02 -0.1452112E+00  0.1000923E-10  0.6911236E-08
  0.1344000E+02 -0.2766942E+00  0.1000890E-10  0.3627187E-08
  0.1372000E+02 -0.5272299E+00  0.1000873E-10  0.1903608E-08
  0.1400000E+02 -0.1004616E+01  0.1000864E-10  0.9990366E-09
