title = "dataset surfme"
variables = "pH","=soh","=soh2+","=so-","=some+"
zone t = "S_i, pH-sweep from 0-14", f=point
  0.0000000E+00  0.9999465E-08  0.9999465E-04  0.9999465E-17  0.9999465E-16
  0.2800000E+00  0.1905186E-07  0.9998560E-04  0.3630258E-16  0.3630258E-15
  0.5600000E+00  0.3629632E-07  0.9996835E-04  0.1317840E-15  0.1317840E-14
  0.8400000E+00  0.6913848E-07  0.9993551E-04  0.4783214E-15  0.4783214E-14
  0.1120000E+01  0.1316582E-06  0.9987299E-04  0.1735594E-14  0.1735593E-13
  0.1400000E+01  0.2505709E-06  0.9975408E-04  0.6294057E-14  0.6294053E-13
  0.1680000E+01  0.4763723E-06  0.9952828E-04  0.2280061E-13  0.2280056E-12
  0.1960000E+01  0.9038104E-06  0.9910084E-04  0.8242849E-13  0.8242781E-12
  0.2240000E+01  0.1708197E-05  0.9829645E-04  0.2968505E-12  0.2968417E-11
  0.2520000E+01  0.3205326E-05  0.9679931E-04  0.1061383E-11  0.1061271E-10
  0.2800000E+01  0.5935368E-05  0.9406924E-04  0.3744964E-11  0.3743562E-10
  0.3080000E+01  0.1073282E-04  0.8927169E-04  0.1290369E-10  0.1288706E-09
  0.3360000E+01  0.1863956E-04  0.8136462E-04  0.4270076E-10  0.4251920E-09
  0.3640000E+01  0.3038810E-04  0.6961511E-04  0.1326489E-09  0.1309123E-08
  0.3920000E+01  0.4540809E-04  0.5459254E-04  0.3776881E-09  0.3639424E-08
  0.4200000E+01  0.6131051E-04  0.3868431E-04  0.9717060E-09  0.8856472E-08
  0.4480000E+01  0.7511198E-04  0.2487191E-04  0.2268345E-08  0.1848942E-07
  0.4760000E+01  0.8516660E-04  0.1480026E-04  0.4900826E-08  0.3288963E-07
  0.5040000E+01  0.9159128E-04  0.8353224E-05  0.1004278E-07  0.5010673E-07
  0.5320000E+01  0.9535421E-04  0.4563939E-05  0.1992232E-07  0.6658013E-07
  0.5600000E+01  0.9743880E-04  0.2447552E-05  0.3879109E-07  0.7950445E-07
  0.5880000E+01  0.9854265E-04  0.1299045E-05  0.7475225E-07  0.8820090E-07
  0.6160000E+01  0.9908248E-04  0.6854833E-06  0.1432178E-06  0.9347334E-07
  0.6440000E+01  0.9927431E-04  0.3604432E-06  0.2734242E-06  0.9647172E-07
  0.6720000E+01  0.9919693E-04  0.1890158E-06  0.5205929E-06  0.9811532E-07
  0.7000000E+01  0.9881865E-04  0.9881865E-07  0.9881865E-06  0.9899818E-07
  0.7280000E+01  0.9798666E-04  0.5142413E-07  0.1867097E-05  0.9946726E-07
  0.7560000E+01  0.9637908E-04  0.2654500E-07  0.3499313E-05  0.9971504E-07
  0.7840000E+01  0.9342768E-04  0.1350441E-07  0.6463616E-05  0.9984553E-07
  0.8120000E+01  0.8826274E-04  0.6695414E-08  0.1163530E-04  0.9991413E-07
  0.8400000E+01  0.7984529E-04  0.3178698E-08  0.2005623E-04  0.9995017E-07
  0.8680000E+01  0.6756475E-04  0.1411628E-08  0.3233852E-04  0.9996909E-07
  0.8960000E+01  0.5225080E-04  0.5729186E-09  0.4765330E-04  0.9997902E-07
  0.9240000E+01  0.3649077E-04  0.2099825E-09  0.6341369E-04  0.9998423E-07
  0.9520000E+01  0.2317267E-04  0.6998035E-10  0.7673192E-04  0.9998697E-07
  0.9800000E+01  0.1366764E-04  0.2166175E-10  0.8623700E-04  0.9998841E-07
  0.1008000E+02  0.7671610E-05  0.6380968E-11  0.9223304E-04  0.9998916E-07
  0.1036000E+02  0.4178594E-05  0.1824023E-11  0.9572606E-04  0.9998955E-07
  0.1064000E+02  0.2237427E-05  0.5125649E-12  0.9766723E-04  0.9998976E-07
  0.1092000E+02  0.1186849E-05  0.1426906E-12  0.9871781E-04  0.9998987E-07
  0.1120000E+02  0.6264034E-06  0.3952339E-13  0.9927826E-04  0.9998993E-07
  0.1148000E+02  0.3297236E-06  0.1091817E-13  0.9957494E-04  0.9998996E-07
  0.1176000E+02  0.1733132E-06  0.3011839E-14  0.9973135E-04  0.9998997E-07
  0.1204000E+02  0.9103111E-07  0.8302136E-15  0.9981363E-04  0.9998998E-07
  0.1232000E+02  0.4779450E-07  0.2287589E-15  0.9985687E-04  0.9998999E-07
  0.1260000E+02  0.2508861E-07  0.6301975E-16  0.9987957E-04  0.9998999E-07
  0.1288000E+02  0.1316826E-07  0.1735915E-16  0.9989149E-04  0.9998999E-07
  0.1316000E+02  0.6911236E-08  0.4781407E-17  0.9989775E-04  0.9998999E-07
  0.1344000E+02  0.3627187E-08  0.1316952E-17  0.9990103E-04  0.9998999E-07
  0.1372000E+02  0.1903608E-08  0.3627250E-18  0.9990276E-04  0.9998999E-07
  0.1400000E+02  0.9990366E-09  0.9990366E-19  0.9990366E-04  0.9998999E-07
