title = "dataset diff-de-ave"
variables = "x", "y", "z","hto"
zone t = "T_j, T =  1.000E+05 days", i =    5, j =    1, k =    1,  f=point
  0.0000000E+00  0.0000000E+00  0.0000000E+00  0.1000000E+01
  0.2500000E+00  0.0000000E+00  0.0000000E+00  0.9687597E+00
  0.5000000E+00  0.0000000E+00  0.0000000E+00  0.5000000E+00
  0.7500000E+00  0.0000000E+00  0.0000000E+00  0.3124031E-01
  0.1000000E+01  0.0000000E+00  0.0000000E+00  0.1000000E-99
