title = "dataset shlomo"
variables = "x", "y", "z", "h_w", "p_w", "s_w", "theta_a", "s_a", "theta_g"
zone t = "Flow variables, steady state" i =  121, j =   26, k =    1,  f=point
  0.0000000E+00  0.0000000E+00  0.0000000E+00  0.0000000E+00  0.0000000E+00  0.1000000E+01  0.3480000E+00  0.0000000E+00  0.0000000E+00
  0.5000000E-01  0.0000000E+00  0.0000000E+00  0.7493255E-01  0.7493255E-01  0.1000000E+01  0.3480000E+00  0.0000000E+00  0.0000000E+00
  0.1000000E+00  0.0000000E+00  0.0000000E+00  0.1165882E+00  0.1165882E+00  0.1000000E+01  0.3480000E+00  0.0000000E+00  0.0000000E+00
  0.1500000E+00  0.0000000E+00  0.0000000E+00  0.1449082E+00  0.1449082E+00  0.1000000E+01  0.3480000E+00  0.0000000E+00  0.0000000E+00
  0.2000000E+00  0.0000000E+00  0.0000000E+00  0.1667220E+00  0.1667220E+00  0.1000000E+01  0.3480000E+00  0.0000000E+00  0.0000000E+00
  0.2500000E+00  0.0000000E+00  0.0000000E+00  0.1848641E+00  0.1848641E+00  0.1000000E+01  0.3480000E+00  0.0000000E+00  0.0000000E+00
  0.3000000E+00  0.0000000E+00  0.0000000E+00  0.2007086E+00  0.2007086E+00  0.1000000E+01  0.3480000E+00  0.0000000E+00  0.0000000E+00
  0.3500000E+00  0.0000000E+00  0.0000000E+00  0.2150012E+00  0.2150012E+00  0.1000000E+01  0.3480000E+00  0.0000000E+00  0.0000000E+00
  0.4000000E+00  0.0000000E+00  0.0000000E+00  0.2281803E+00  0.2281803E+00  0.1000000E+01  0.3480000E+00  0.0000000E+00  0.0000000E+00
  0.4500000E+00  0.0000000E+00  0.0000000E+00  0.2405191E+00  0.2405191E+00  0.1000000E+01  0.3480000E+00  0.0000000E+00  0.0000000E+00
  0.5000000E+00  0.0000000E+00  0.0000000E+00  0.2521956E+00  0.2521956E+00  0.1000000E+01  0.3480000E+00  0.0000000E+00  0.0000000E+00
  0.5500000E+00  0.0000000E+00  0.0000000E+00  0.2633306E+00  0.2633306E+00  0.1000000E+01  0.3480000E+00  0.0000000E+00  0.0000000E+00
  0.6000000E+00  0.0000000E+00  0.0000000E+00  0.2740089E+00  0.2740089E+00  0.1000000E+01  0.3480000E+00  0.0000000E+00  0.0000000E+00
  0.6500000E+00  0.0000000E+00  0.0000000E+00  0.2842915E+00  0.2842915E+00  0.1000000E+01  0.3480000E+00  0.0000000E+00  0.0000000E+00
  0.7000000E+00  0.0000000E+00  0.0000000E+00  0.2942240E+00  0.2942240E+00  0.1000000E+01  0.3480000E+00  0.0000000E+00  0.0000000E+00
  0.7500000E+00  0.0000000E+00  0.0000000E+00  0.3038414E+00  0.3038414E+00  0.1000000E+01  0.3480000E+00  0.0000000E+00  0.0000000E+00
  0.8000000E+00  0.0000000E+00  0.0000000E+00  0.3131711E+00  0.3131711E+00  0.1000000E+01  0.3480000E+00  0.0000000E+00  0.0000000E+00
  0.8500000E+00  0.0000000E+00  0.0000000E+00  0.3222352E+00  0.3222352E+00  0.1000000E+01  0.3480000E+00  0.0000000E+00  0.0000000E+00
  0.9000000E+00  0.0000000E+00  0.0000000E+00  0.3310519E+00  0.3310519E+00  0.1000000E+01  0.3480000E+00  0.0000000E+00  0.0000000E+00
  0.9500000E+00  0.0000000E+00  0.0000000E+00  0.3396364E+00  0.3396364E+00  0.1000000E+01  0.3480000E+00  0.0000000E+00  0.0000000E+00
  0.1000000E+01  0.0000000E+00  0.0000000E+00  0.3480019E+00  0.3480019E+00  0.1000000E+01  0.3480000E+00  0.0000000E+00  0.0000000E+00
  0.1050000E+01  0.0000000E+00  0.0000000E+00  0.3561598E+00  0.3561598E+00  0.1000000E+01  0.3480000E+00  0.0000000E+00  0.0000000E+00
  0.1100000E+01  0.0000000E+00  0.0000000E+00  0.3641200E+00  0.3641200E+00  0.1000000E+01  0.3480000E+00  0.0000000E+00  0.0000000E+00
  0.1150000E+01  0.0000000E+00  0.0000000E+00  0.3718916E+00  0.3718916E+00  0.1000000E+01  0.3480000E+00  0.0000000E+00  0.0000000E+00
  0.1200000E+01  0.0000000E+00  0.0000000E+00  0.3794825E+00  0.3794825E+00  0.1000000E+01  0.3480000E+00  0.0000000E+00  0.0000000E+00
  0.1250000E+01  0.0000000E+00  0.0000000E+00  0.3869001E+00  0.3869001E+00  0.1000000E+01  0.3480000E+00  0.0000000E+00  0.0000000E+00
  0.1300000E+01  0.0000000E+00  0.0000000E+00  0.3941509E+00  0.3941509E+00  0.1000000E+01  0.3480000E+00  0.0000000E+00  0.0000000E+00
  0.1350000E+01  0.0000000E+00  0.0000000E+00  0.4012411E+00  0.4012411E+00  0.1000000E+01  0.3480000E+00  0.0000000E+00  0.0000000E+00
  0.1400000E+01  0.0000000E+00  0.0000000E+00  0.4081764E+00  0.4081764E+00  0.1000000E+01  0.3480000E+00  0.0000000E+00  0.0000000E+00
  0.1450000E+01  0.0000000E+00  0.0000000E+00  0.4149618E+00  0.4149618E+00  0.1000000E+01  0.3480000E+00  0.0000000E+00  0.0000000E+00
  0.1500000E+01  0.0000000E+00  0.0000000E+00  0.4216024E+00  0.4216024E+00  0.1000000E+01  0.3480000E+00  0.0000000E+00  0.0000000E+00
  0.1550000E+01  0.0000000E+00  0.0000000E+00  0.4281027E+00  0.4281027E+00  0.1000000E+01  0.3480000E+00  0.0000000E+00  0.0000000E+00
  0.1600000E+01  0.0000000E+00  0.0000000E+00  0.4344668E+00  0.4344668E+00  0.1000000E+01  0.3480000E+00  0.0000000E+00  0.0000000E+00
  0.1650000E+01  0.0000000E+00  0.0000000E+00  0.4406987E+00  0.4406987E+00  0.1000000E+01  0.3480000E+00  0.0000000E+00  0.0000000E+00
  0.1700000E+01  0.0000000E+00  0.0000000E+00  0.4468023E+00  0.4468023E+00  0.1000000E+01  0.3480000E+00  0.0000000E+00  0.0000000E+00
  0.1750000E+01  0.0000000E+00  0.0000000E+00  0.4527809E+00  0.4527809E+00  0.1000000E+01  0.3480000E+00  0.0000000E+00  0.0000000E+00
  0.1800000E+01  0.0000000E+00  0.0000000E+00  0.4586380E+00  0.4586380E+00  0.1000000E+01  0.3480000E+00  0.0000000E+00  0.0000000E+00
  0.1850000E+01  0.0000000E+00  0.0000000E+00  0.4643766E+00  0.4643766E+00  0.1000000E+01  0.3480000E+00  0.0000000E+00  0.0000000E+00
  0.1900000E+01  0.0000000E+00  0.0000000E+00  0.4699997E+00  0.4699997E+00  0.1000000E+01  0.3480000E+00  0.0000000E+00  0.0000000E+00
  0.1950000E+01  0.0000000E+00  0.0000000E+00  0.4755101E+00  0.4755101E+00  0.1000000E+01  0.3480000E+00  0.0000000E+00  0.0000000E+00
  0.2000000E+01  0.0000000E+00  0.0000000E+00  0.4809105E+00  0.4809105E+00  0.1000000E+01  0.3480000E+00  0.0000000E+00  0.0000000E+00
  0.2050000E+01  0.0000000E+00  0.0000000E+00  0.4862034E+00  0.4862034E+00  0.1000000E+01  0.3480000E+00  0.0000000E+00  0.0000000E+00
  0.2100000E+01  0.0000000E+00  0.0000000E+00  0.4913912E+00  0.4913912E+00  0.1000000E+01  0.3480000E+00  0.0000000E+00  0.0000000E+00
  0.2150000E+01  0.0000000E+00  0.0000000E+00  0.4964761E+00  0.4964761E+00  0.1000000E+01  0.3480000E+00  0.0000000E+00  0.0000000E+00
  0.2200000E+01  0.0000000E+00  0.0000000E+00  0.5014604E+00  0.5014604E+00  0.1000000E+01  0.3480000E+00  0.0000000E+00  0.0000000E+00
  0.2250000E+01  0.0000000E+00  0.0000000E+00  0.5063461E+00  0.5063461E+00  0.1000000E+01  0.3480000E+00  0.0000000E+00  0.0000000E+00
  0.2300000E+01  0.0000000E+00  0.0000000E+00  0.5111352E+00  0.5111352E+00  0.1000000E+01  0.3480000E+00  0.0000000E+00  0.0000000E+00
  0.2350000E+01  0.0000000E+00  0.0000000E+00  0.5158296E+00  0.5158296E+00  0.1000000E+01  0.3480000E+00  0.0000000E+00  0.0000000E+00
  0.2400000E+01  0.0000000E+00  0.0000000E+00  0.5204311E+00  0.5204311E+00  0.1000000E+01  0.3480000E+00  0.0000000E+00  0.0000000E+00
  0.2450000E+01  0.0000000E+00  0.0000000E+00  0.5249413E+00  0.5249413E+00  0.1000000E+01  0.3480000E+00  0.0000000E+00  0.0000000E+00
  0.2500000E+01  0.0000000E+00  0.0000000E+00  0.5293620E+00  0.5293620E+00  0.1000000E+01  0.3480000E+00  0.0000000E+00  0.0000000E+00
  0.2550000E+01  0.0000000E+00  0.0000000E+00  0.5336947E+00  0.5336947E+00  0.1000000E+01  0.3480000E+00  0.0000000E+00  0.0000000E+00
  0.2600000E+01  0.0000000E+00  0.0000000E+00  0.5379409E+00  0.5379409E+00  0.1000000E+01  0.3480000E+00  0.0000000E+00  0.0000000E+00
  0.2650000E+01  0.0000000E+00  0.0000000E+00  0.5421021E+00  0.5421021E+00  0.1000000E+01  0.3480000E+00  0.0000000E+00  0.0000000E+00
  0.2700000E+01  0.0000000E+00  0.0000000E+00  0.5461796E+00  0.5461796E+00  0.1000000E+01  0.3480000E+00  0.0000000E+00  0.0000000E+00
  0.2750000E+01  0.0000000E+00  0.0000000E+00  0.5501747E+00  0.5501747E+00  0.1000000E+01  0.3480000E+00  0.0000000E+00  0.0000000E+00
  0.2800000E+01  0.0000000E+00  0.0000000E+00  0.5540888E+00  0.5540888E+00  0.1000000E+01  0.3480000E+00  0.0000000E+00  0.0000000E+00
  0.2850000E+01  0.0000000E+00  0.0000000E+00  0.5579231E+00  0.5579231E+00  0.1000000E+01  0.3480000E+00  0.0000000E+00  0.0000000E+00
  0.2900000E+01  0.0000000E+00  0.0000000E+00  0.5616787E+00  0.5616787E+00  0.1000000E+01  0.3480000E+00  0.0000000E+00  0.0000000E+00
  0.2950000E+01  0.0000000E+00  0.0000000E+00  0.5653568E+00  0.5653568E+00  0.1000000E+01  0.3480000E+00  0.0000000E+00  0.0000000E+00
  0.3000000E+01  0.0000000E+00  0.0000000E+00  0.5689583E+00  0.5689583E+00  0.1000000E+01  0.3480000E+00  0.0000000E+00  0.0000000E+00
  0.3050000E+01  0.0000000E+00  0.0000000E+00  0.5724845E+00  0.5724845E+00  0.1000000E+01  0.3480000E+00  0.0000000E+00  0.0000000E+00
  0.3100000E+01  0.0000000E+00  0.0000000E+00  0.5759363E+00  0.5759363E+00  0.1000000E+01  0.3480000E+00  0.0000000E+00  0.0000000E+00
  0.3150000E+01  0.0000000E+00  0.0000000E+00  0.5793146E+00  0.5793146E+00  0.1000000E+01  0.3480000E+00  0.0000000E+00  0.0000000E+00
  0.3200000E+01  0.0000000E+00  0.0000000E+00  0.5826203E+00  0.5826203E+00  0.1000000E+01  0.3480000E+00  0.0000000E+00  0.0000000E+00
  0.3250000E+01  0.0000000E+00  0.0000000E+00  0.5858544E+00  0.5858544E+00  0.1000000E+01  0.3480000E+00  0.0000000E+00  0.0000000E+00
  0.3300000E+01  0.0000000E+00  0.0000000E+00  0.5890178E+00  0.5890178E+00  0.1000000E+01  0.3480000E+00  0.0000000E+00  0.0000000E+00
  0.3350000E+01  0.0000000E+00  0.0000000E+00  0.5921111E+00  0.5921111E+00  0.1000000E+01  0.3480000E+00  0.0000000E+00  0.0000000E+00
  0.3400000E+01  0.0000000E+00  0.0000000E+00  0.5951353E+00  0.5951353E+00  0.1000000E+01  0.3480000E+00  0.0000000E+00  0.0000000E+00
  0.3450000E+01  0.0000000E+00  0.0000000E+00  0.5980911E+00  0.5980911E+00  0.1000000E+01  0.3480000E+00  0.0000000E+00  0.0000000E+00
  0.3500000E+01  0.0000000E+00  0.0000000E+00  0.6009792E+00  0.6009792E+00  0.1000000E+01  0.3480000E+00  0.0000000E+00  0.0000000E+00
  0.3550000E+01  0.0000000E+00  0.0000000E+00  0.6038004E+00  0.6038004E+00  0.1000000E+01  0.3480000E+00  0.0000000E+00  0.0000000E+00
  0.3600000E+01  0.0000000E+00  0.0000000E+00  0.6065552E+00  0.6065552E+00  0.1000000E+01  0.3480000E+00  0.0000000E+00  0.0000000E+00
  0.3650000E+01  0.0000000E+00  0.0000000E+00  0.6092445E+00  0.6092445E+00  0.1000000E+01  0.3480000E+00  0.0000000E+00  0.0000000E+00
  0.3700000E+01  0.0000000E+00  0.0000000E+00  0.6118688E+00  0.6118688E+00  0.1000000E+01  0.3480000E+00  0.0000000E+00  0.0000000E+00
  0.3750000E+01  0.0000000E+00  0.0000000E+00  0.6144287E+00  0.6144287E+00  0.1000000E+01  0.3480000E+00  0.0000000E+00  0.0000000E+00
  0.3800000E+01  0.0000000E+00  0.0000000E+00  0.6169248E+00  0.6169248E+00  0.1000000E+01  0.3480000E+00  0.0000000E+00  0.0000000E+00
  0.3850000E+01  0.0000000E+00  0.0000000E+00  0.6193577E+00  0.6193577E+00  0.1000000E+01  0.3480000E+00  0.0000000E+00  0.0000000E+00
  0.3900000E+01  0.0000000E+00  0.0000000E+00  0.6217279E+00  0.6217279E+00  0.1000000E+01  0.3480000E+00  0.0000000E+00  0.0000000E+00
  0.3950000E+01  0.0000000E+00  0.0000000E+00  0.6240360E+00  0.6240360E+00  0.1000000E+01  0.3480000E+00  0.0000000E+00  0.0000000E+00
  0.4000000E+01  0.0000000E+00  0.0000000E+00  0.6262824E+00  0.6262824E+00  0.1000000E+01  0.3480000E+00  0.0000000E+00  0.0000000E+00
  0.4050000E+01  0.0000000E+00  0.0000000E+00  0.6284677E+00  0.6284677E+00  0.1000000E+01  0.3480000E+00  0.0000000E+00  0.0000000E+00
  0.4100000E+01  0.0000000E+00  0.0000000E+00  0.6305923E+00  0.6305923E+00  0.1000000E+01  0.3480000E+00  0.0000000E+00  0.0000000E+00
  0.4150000E+01  0.0000000E+00  0.0000000E+00  0.6326566E+00  0.6326566E+00  0.1000000E+01  0.3480000E+00  0.0000000E+00  0.0000000E+00
  0.4200000E+01  0.0000000E+00  0.0000000E+00  0.6346612E+00  0.6346612E+00  0.1000000E+01  0.3480000E+00  0.0000000E+00  0.0000000E+00
  0.4250000E+01  0.0000000E+00  0.0000000E+00  0.6366064E+00  0.6366064E+00  0.1000000E+01  0.3480000E+00  0.0000000E+00  0.0000000E+00
  0.4300000E+01  0.0000000E+00  0.0000000E+00  0.6384925E+00  0.6384925E+00  0.1000000E+01  0.3480000E+00  0.0000000E+00  0.0000000E+00
  0.4350000E+01  0.0000000E+00  0.0000000E+00  0.6403201E+00  0.6403201E+00  0.1000000E+01  0.3480000E+00  0.0000000E+00  0.0000000E+00
  0.4400000E+01  0.0000000E+00  0.0000000E+00  0.6420895E+00  0.6420895E+00  0.1000000E+01  0.3480000E+00  0.0000000E+00  0.0000000E+00
  0.4450000E+01  0.0000000E+00  0.0000000E+00  0.6438010E+00  0.6438010E+00  0.1000000E+01  0.3480000E+00  0.0000000E+00  0.0000000E+00
  0.4500000E+01  0.0000000E+00  0.0000000E+00  0.6454550E+00  0.6454550E+00  0.1000000E+01  0.3480000E+00  0.0000000E+00  0.0000000E+00
  0.4550000E+01  0.0000000E+00  0.0000000E+00  0.6470517E+00  0.6470517E+00  0.1000000E+01  0.3480000E+00  0.0000000E+00  0.0000000E+00
  0.4600000E+01  0.0000000E+00  0.0000000E+00  0.6485916E+00  0.6485916E+00  0.1000000E+01  0.3480000E+00  0.0000000E+00  0.0000000E+00
  0.4650000E+01  0.0000000E+00  0.0000000E+00  0.6500749E+00  0.6500749E+00  0.1000000E+01  0.3480000E+00  0.0000000E+00  0.0000000E+00
  0.4700000E+01  0.0000000E+00  0.0000000E+00  0.6515019E+00  0.6515019E+00  0.1000000E+01  0.3480000E+00  0.0000000E+00  0.0000000E+00
  0.4750000E+01  0.0000000E+00  0.0000000E+00  0.6528729E+00  0.6528729E+00  0.1000000E+01  0.3480000E+00  0.0000000E+00  0.0000000E+00
  0.4800000E+01  0.0000000E+00  0.0000000E+00  0.6541881E+00  0.6541881E+00  0.1000000E+01  0.3480000E+00  0.0000000E+00  0.0000000E+00
  0.4850000E+01  0.0000000E+00  0.0000000E+00  0.6554478E+00  0.6554478E+00  0.1000000E+01  0.3480000E+00  0.0000000E+00  0.0000000E+00
  0.4900000E+01  0.0000000E+00  0.0000000E+00  0.6566522E+00  0.6566522E+00  0.1000000E+01  0.3480000E+00  0.0000000E+00  0.0000000E+00
  0.4950000E+01  0.0000000E+00  0.0000000E+00  0.6578015E+00  0.6578015E+00  0.1000000E+01  0.3480000E+00  0.0000000E+00  0.0000000E+00
  0.5000000E+01  0.0000000E+00  0.0000000E+00  0.6588960E+00  0.6588960E+00  0.1000000E+01  0.3480000E+00  0.0000000E+00  0.0000000E+00
  0.5050000E+01  0.0000000E+00  0.0000000E+00  0.6599359E+00  0.6599359E+00  0.1000000E+01  0.3480000E+00  0.0000000E+00  0.0000000E+00
  0.5100000E+01  0.0000000E+00  0.0000000E+00  0.6609213E+00  0.6609213E+00  0.1000000E+01  0.3480000E+00  0.0000000E+00  0.0000000E+00
  0.5150000E+01  0.0000000E+00  0.0000000E+00  0.6618525E+00  0.6618525E+00  0.1000000E+01  0.3480000E+00  0.0000000E+00  0.0000000E+00
  0.5200000E+01  0.0000000E+00  0.0000000E+00  0.6627296E+00  0.6627296E+00  0.1000000E+01  0.3480000E+00  0.0000000E+00  0.0000000E+00
  0.5250000E+01  0.0000000E+00  0.0000000E+00  0.6635527E+00  0.6635527E+00  0.1000000E+01  0.3480000E+00  0.0000000E+00  0.0000000E+00
  0.5300000E+01  0.0000000E+00  0.0000000E+00  0.6643221E+00  0.6643221E+00  0.1000000E+01  0.3480000E+00  0.0000000E+00  0.0000000E+00
  0.5350000E+01  0.0000000E+00  0.0000000E+00  0.6650378E+00  0.6650378E+00  0.1000000E+01  0.3480000E+00  0.0000000E+00  0.0000000E+00
  0.5400000E+01  0.0000000E+00  0.0000000E+00  0.6656999E+00  0.6656999E+00  0.1000000E+01  0.3480000E+00  0.0000000E+00  0.0000000E+00
  0.5450000E+01  0.0000000E+00  0.0000000E+00  0.6663087E+00  0.6663087E+00  0.1000000E+01  0.3480000E+00  0.0000000E+00  0.0000000E+00
  0.5500000E+01  0.0000000E+00  0.0000000E+00  0.6668642E+00  0.6668642E+00  0.1000000E+01  0.3480000E+00  0.0000000E+00  0.0000000E+00
  0.5550000E+01  0.0000000E+00  0.0000000E+00  0.6673665E+00  0.6673665E+00  0.1000000E+01  0.3480000E+00  0.0000000E+00  0.0000000E+00
  0.5600000E+01  0.0000000E+00  0.0000000E+00  0.6678156E+00  0.6678156E+00  0.1000000E+01  0.3480000E+00  0.0000000E+00  0.0000000E+00
  0.5650000E+01  0.0000000E+00  0.0000000E+00  0.6682118E+00  0.6682118E+00  0.1000000E+01  0.3480000E+00  0.0000000E+00  0.0000000E+00
  0.5700000E+01  0.0000000E+00  0.0000000E+00  0.6685550E+00  0.6685550E+00  0.1000000E+01  0.3480000E+00  0.0000000E+00  0.0000000E+00
  0.5750000E+01  0.0000000E+00  0.0000000E+00  0.6688452E+00  0.6688452E+00  0.1000000E+01  0.3480000E+00  0.0000000E+00  0.0000000E+00
  0.5800000E+01  0.0000000E+00  0.0000000E+00  0.6690827E+00  0.6690827E+00  0.1000000E+01  0.3480000E+00  0.0000000E+00  0.0000000E+00
  0.5850000E+01  0.0000000E+00  0.0000000E+00  0.6692673E+00  0.6692673E+00  0.1000000E+01  0.3480000E+00  0.0000000E+00  0.0000000E+00
  0.5900000E+01  0.0000000E+00  0.0000000E+00  0.6693992E+00  0.6693992E+00  0.1000000E+01  0.3480000E+00  0.0000000E+00  0.0000000E+00
  0.5950000E+01  0.0000000E+00  0.0000000E+00  0.6694783E+00  0.6694783E+00  0.1000000E+01  0.3480000E+00  0.0000000E+00  0.0000000E+00
  0.6000000E+01  0.0000000E+00  0.0000000E+00  0.6695046E+00  0.6695046E+00  0.1000000E+01  0.3480000E+00  0.0000000E+00  0.0000000E+00
  0.0000000E+00  0.0000000E+00  0.4800000E-01  0.4800000E-01  0.0000000E+00  0.1000000E+01  0.3480000E+00  0.0000000E+00  0.0000000E+00
  0.5000000E-01  0.0000000E+00  0.4800000E-01  0.9026655E-01  0.4226655E-01  0.1000000E+01  0.3480000E+00  0.0000000E+00  0.0000000E+00
  0.1000000E+00  0.0000000E+00  0.4800000E-01  0.1227333E+00  0.7473329E-01  0.1000000E+01  0.3480000E+00  0.0000000E+00  0.0000000E+00
  0.1500000E+00  0.0000000E+00  0.4800000E-01  0.1479061E+00  0.9990615E-01  0.1000000E+01  0.3480000E+00  0.0000000E+00  0.0000000E+00
  0.2000000E+00  0.0000000E+00  0.4800000E-01  0.1684140E+00  0.1204140E+00  0.1000000E+01  0.3480000E+00  0.0000000E+00  0.0000000E+00
  0.2500000E+00  0.0000000E+00  0.4800000E-01  0.1859228E+00  0.1379228E+00  0.1000000E+01  0.3480000E+00  0.0000000E+00  0.0000000E+00
  0.3000000E+00  0.0000000E+00  0.4800000E-01  0.2014237E+00  0.1534237E+00  0.1000000E+01  0.3480000E+00  0.0000000E+00  0.0000000E+00
  0.3500000E+00  0.0000000E+00  0.4800000E-01  0.2155143E+00  0.1675143E+00  0.1000000E+01  0.3480000E+00  0.0000000E+00  0.0000000E+00
  0.4000000E+00  0.0000000E+00  0.4800000E-01  0.2285676E+00  0.1805676E+00  0.1000000E+01  0.3480000E+00  0.0000000E+00  0.0000000E+00
  0.4500000E+00  0.0000000E+00  0.4800000E-01  0.2408242E+00  0.1928242E+00  0.1000000E+01  0.3480000E+00  0.0000000E+00  0.0000000E+00
  0.5000000E+00  0.0000000E+00  0.4800000E-01  0.2524451E+00  0.2044451E+00  0.1000000E+01  0.3480000E+00  0.0000000E+00  0.0000000E+00
  0.5500000E+00  0.0000000E+00  0.4800000E-01  0.2635411E+00  0.2155411E+00  0.1000000E+01  0.3480000E+00  0.0000000E+00  0.0000000E+00
  0.6000000E+00  0.0000000E+00  0.4800000E-01  0.2741912E+00  0.2261912E+00  0.1000000E+01  0.3480000E+00  0.0000000E+00  0.0000000E+00
  0.6500000E+00  0.0000000E+00  0.4800000E-01  0.2844528E+00  0.2364528E+00  0.1000000E+01  0.3480000E+00  0.0000000E+00  0.0000000E+00
  0.7000000E+00  0.0000000E+00  0.4800000E-01  0.2943692E+00  0.2463692E+00  0.1000000E+01  0.3480000E+00  0.0000000E+00  0.0000000E+00
  0.7500000E+00  0.0000000E+00  0.4800000E-01  0.3039740E+00  0.2559740E+00  0.1000000E+01  0.3480000E+00  0.0000000E+00  0.0000000E+00
  0.8000000E+00  0.0000000E+00  0.4800000E-01  0.3132935E+00  0.2652935E+00  0.1000000E+01  0.3480000E+00  0.0000000E+00  0.0000000E+00
  0.8500000E+00  0.0000000E+00  0.4800000E-01  0.3223492E+00  0.2743492E+00  0.1000000E+01  0.3480000E+00  0.0000000E+00  0.0000000E+00
  0.9000000E+00  0.0000000E+00  0.4800000E-01  0.3311588E+00  0.2831588E+00  0.1000000E+01  0.3480000E+00  0.0000000E+00  0.0000000E+00
  0.9500000E+00  0.0000000E+00  0.4800000E-01  0.3397373E+00  0.2917373E+00  0.1000000E+01  0.3480000E+00  0.0000000E+00  0.0000000E+00
  0.1000000E+01  0.0000000E+00  0.4800000E-01  0.3480976E+00  0.3000976E+00  0.1000000E+01  0.3480000E+00  0.0000000E+00  0.0000000E+00
  0.1050000E+01  0.0000000E+00  0.4800000E-01  0.3562508E+00  0.3082508E+00  0.1000000E+01  0.3480000E+00  0.0000000E+00  0.0000000E+00
  0.1100000E+01  0.0000000E+00  0.4800000E-01  0.3642070E+00  0.3162070E+00  0.1000000E+01  0.3480000E+00  0.0000000E+00  0.0000000E+00
  0.1150000E+01  0.0000000E+00  0.4800000E-01  0.3719748E+00  0.3239748E+00  0.1000000E+01  0.3480000E+00  0.0000000E+00  0.0000000E+00
  0.1200000E+01  0.0000000E+00  0.4800000E-01  0.3795624E+00  0.3315624E+00  0.1000000E+01  0.3480000E+00  0.0000000E+00  0.0000000E+00
  0.1250000E+01  0.0000000E+00  0.4800000E-01  0.3869769E+00  0.3389769E+00  0.1000000E+01  0.3480000E+00  0.0000000E+00  0.0000000E+00
  0.1300000E+01  0.0000000E+00  0.4800000E-01  0.3942249E+00  0.3462249E+00  0.1000000E+01  0.3480000E+00  0.0000000E+00  0.0000000E+00
  0.1350000E+01  0.0000000E+00  0.4800000E-01  0.4013125E+00  0.3533125E+00  0.1000000E+01  0.3480000E+00  0.0000000E+00  0.0000000E+00
  0.1400000E+01  0.0000000E+00  0.4800000E-01  0.4082454E+00  0.3602454E+00  0.1000000E+01  0.3480000E+00  0.0000000E+00  0.0000000E+00
  0.1450000E+01  0.0000000E+00  0.4800000E-01  0.4150286E+00  0.3670286E+00  0.1000000E+01  0.3480000E+00  0.0000000E+00  0.0000000E+00
  0.1500000E+01  0.0000000E+00  0.4800000E-01  0.4216671E+00  0.3736671E+00  0.1000000E+01  0.3480000E+00  0.0000000E+00  0.0000000E+00
  0.1550000E+01  0.0000000E+00  0.4800000E-01  0.4281654E+00  0.3801654E+00  0.1000000E+01  0.3480000E+00  0.0000000E+00  0.0000000E+00
  0.1600000E+01  0.0000000E+00  0.4800000E-01  0.4345277E+00  0.3865277E+00  0.1000000E+01  0.3480000E+00  0.0000000E+00  0.0000000E+00
  0.1650000E+01  0.0000000E+00  0.4800000E-01  0.4407579E+00  0.3927579E+00  0.1000000E+01  0.3480000E+00  0.0000000E+00  0.0000000E+00
  0.1700000E+01  0.0000000E+00  0.4800000E-01  0.4468598E+00  0.3988598E+00  0.1000000E+01  0.3480000E+00  0.0000000E+00  0.0000000E+00
  0.1750000E+01  0.0000000E+00  0.4800000E-01  0.4528370E+00  0.4048370E+00  0.1000000E+01  0.3480000E+00  0.0000000E+00  0.0000000E+00
  0.1800000E+01  0.0000000E+00  0.4800000E-01  0.4586926E+00  0.4106926E+00  0.1000000E+01  0.3480000E+00  0.0000000E+00  0.0000000E+00
  0.1850000E+01  0.0000000E+00  0.4800000E-01  0.4644298E+00  0.4164298E+00  0.1000000E+01  0.3480000E+00  0.0000000E+00  0.0000000E+00
  0.1900000E+01  0.0000000E+00  0.4800000E-01  0.4700516E+00  0.4220516E+00  0.1000000E+01  0.3480000E+00  0.0000000E+00  0.0000000E+00
  0.1950000E+01  0.0000000E+00  0.4800000E-01  0.4755608E+00  0.4275608E+00  0.1000000E+01  0.3480000E+00  0.0000000E+00  0.0000000E+00
  0.2000000E+01  0.0000000E+00  0.4800000E-01  0.4809600E+00  0.4329600E+00  0.1000000E+01  0.3480000E+00  0.0000000E+00  0.0000000E+00
  0.2050000E+01  0.0000000E+00  0.4800000E-01  0.4862518E+00  0.4382518E+00  0.1000000E+01  0.3480000E+00  0.0000000E+00  0.0000000E+00
  0.2100000E+01  0.0000000E+00  0.4800000E-01  0.4914385E+00  0.4434385E+00  0.1000000E+01  0.3480000E+00  0.0000000E+00  0.0000000E+00
  0.2150000E+01  0.0000000E+00  0.4800000E-01  0.4965225E+00  0.4485225E+00  0.1000000E+01  0.3480000E+00  0.0000000E+00  0.0000000E+00
  0.2200000E+01  0.0000000E+00  0.4800000E-01  0.5015058E+00  0.4535058E+00  0.1000000E+01  0.3480000E+00  0.0000000E+00  0.0000000E+00
  0.2250000E+01  0.0000000E+00  0.4800000E-01  0.5063906E+00  0.4583906E+00  0.1000000E+01  0.3480000E+00  0.0000000E+00  0.0000000E+00
  0.2300000E+01  0.0000000E+00  0.4800000E-01  0.5111789E+00  0.4631789E+00  0.1000000E+01  0.3480000E+00  0.0000000E+00  0.0000000E+00
  0.2350000E+01  0.0000000E+00  0.4800000E-01  0.5158724E+00  0.4678724E+00  0.1000000E+01  0.3480000E+00  0.0000000E+00  0.0000000E+00
  0.2400000E+01  0.0000000E+00  0.4800000E-01  0.5204731E+00  0.4724731E+00  0.1000000E+01  0.3480000E+00  0.0000000E+00  0.0000000E+00
  0.2450000E+01  0.0000000E+00  0.4800000E-01  0.5249826E+00  0.4769826E+00  0.1000000E+01  0.3480000E+00  0.0000000E+00  0.0000000E+00
  0.2500000E+01  0.0000000E+00  0.4800000E-01  0.5294025E+00  0.4814025E+00  0.1000000E+01  0.3480000E+00  0.0000000E+00  0.0000000E+00
  0.2550000E+01  0.0000000E+00  0.4800000E-01  0.5337345E+00  0.4857345E+00  0.1000000E+01  0.3480000E+00  0.0000000E+00  0.0000000E+00
  0.2600000E+01  0.0000000E+00  0.4800000E-01  0.5379801E+00  0.4899801E+00  0.1000000E+01  0.3480000E+00  0.0000000E+00  0.0000000E+00
  0.2650000E+01  0.0000000E+00  0.4800000E-01  0.5421406E+00  0.4941406E+00  0.1000000E+01  0.3480000E+00  0.0000000E+00  0.0000000E+00
  0.2700000E+01  0.0000000E+00  0.4800000E-01  0.5462175E+00  0.4982175E+00  0.1000000E+01  0.3480000E+00  0.0000000E+00  0.0000000E+00
  0.2750000E+01  0.0000000E+00  0.4800000E-01  0.5502121E+00  0.5022121E+00  0.1000000E+01  0.3480000E+00  0.0000000E+00  0.0000000E+00
  0.2800000E+01  0.0000000E+00  0.4800000E-01  0.5541256E+00  0.5061256E+00  0.1000000E+01  0.3480000E+00  0.0000000E+00  0.0000000E+00
  0.2850000E+01  0.0000000E+00  0.4800000E-01  0.5579594E+00  0.5099594E+00  0.1000000E+01  0.3480000E+00  0.0000000E+00  0.0000000E+00
  0.2900000E+01  0.0000000E+00  0.4800000E-01  0.5617144E+00  0.5137144E+00  0.1000000E+01  0.3480000E+00  0.0000000E+00  0.0000000E+00
  0.2950000E+01  0.0000000E+00  0.4800000E-01  0.5653920E+00  0.5173920E+00  0.1000000E+01  0.3480000E+00  0.0000000E+00  0.0000000E+00
  0.3000000E+01  0.0000000E+00  0.4800000E-01  0.5689931E+00  0.5209931E+00  0.1000000E+01  0.3480000E+00  0.0000000E+00  0.0000000E+00
  0.3050000E+01  0.0000000E+00  0.4800000E-01  0.5725188E+00  0.5245188E+00  0.1000000E+01  0.3480000E+00  0.0000000E+00  0.0000000E+00
  0.3100000E+01  0.0000000E+00  0.4800000E-01  0.5759701E+00  0.5279701E+00  0.1000000E+01  0.3480000E+00  0.0000000E+00  0.0000000E+00
  0.3150000E+01  0.0000000E+00  0.4800000E-01  0.5793480E+00  0.5313480E+00  0.1000000E+01  0.3480000E+00  0.0000000E+00  0.0000000E+00
  0.3200000E+01  0.0000000E+00  0.4800000E-01  0.5826533E+00  0.5346533E+00  0.1000000E+01  0.3480000E+00  0.0000000E+00  0.0000000E+00
  0.3250000E+01  0.0000000E+00  0.4800000E-01  0.5858871E+00  0.5378871E+00  0.1000000E+01  0.3480000E+00  0.0000000E+00  0.0000000E+00
  0.3300000E+01  0.0000000E+00  0.4800000E-01  0.5890500E+00  0.5410500E+00  0.1000000E+01  0.3480000E+00  0.0000000E+00  0.0000000E+00
  0.3350000E+01  0.0000000E+00  0.4800000E-01  0.5921430E+00  0.5441430E+00  0.1000000E+01  0.3480000E+00  0.0000000E+00  0.0000000E+00
  0.3400000E+01  0.0000000E+00  0.4800000E-01  0.5951668E+00  0.5471668E+00  0.1000000E+01  0.3480000E+00  0.0000000E+00  0.0000000E+00
  0.3450000E+01  0.0000000E+00  0.4800000E-01  0.5981223E+00  0.5501223E+00  0.1000000E+01  0.3480000E+00  0.0000000E+00  0.0000000E+00
  0.3500000E+01  0.0000000E+00  0.4800000E-01  0.6010101E+00  0.5530101E+00  0.1000000E+01  0.3480000E+00  0.0000000E+00  0.0000000E+00
  0.3550000E+01  0.0000000E+00  0.4800000E-01  0.6038309E+00  0.5558309E+00  0.1000000E+01  0.3480000E+00  0.0000000E+00  0.0000000E+00
  0.3600000E+01  0.0000000E+00  0.4800000E-01  0.6065855E+00  0.5585855E+00  0.1000000E+01  0.3480000E+00  0.0000000E+00  0.0000000E+00
  0.3650000E+01  0.0000000E+00  0.4800000E-01  0.6092744E+00  0.5612744E+00  0.1000000E+01  0.3480000E+00  0.0000000E+00  0.0000000E+00
  0.3700000E+01  0.0000000E+00  0.4800000E-01  0.6118984E+00  0.5638984E+00  0.1000000E+01  0.3480000E+00  0.0000000E+00  0.0000000E+00
  0.3750000E+01  0.0000000E+00  0.4800000E-01  0.6144581E+00  0.5664581E+00  0.1000000E+01  0.3480000E+00  0.0000000E+00  0.0000000E+00
  0.3800000E+01  0.0000000E+00  0.4800000E-01  0.6169539E+00  0.5689539E+00  0.1000000E+01  0.3480000E+00  0.0000000E+00  0.0000000E+00
  0.3850000E+01  0.0000000E+00  0.4800000E-01  0.6193866E+00  0.5713866E+00  0.1000000E+01  0.3480000E+00  0.0000000E+00  0.0000000E+00
  0.3900000E+01  0.0000000E+00  0.4800000E-01  0.6217565E+00  0.5737565E+00  0.1000000E+01  0.3480000E+00  0.0000000E+00  0.0000000E+00
  0.3950000E+01  0.0000000E+00  0.4800000E-01  0.6240644E+00  0.5760644E+00  0.1000000E+01  0.3480000E+00  0.0000000E+00  0.0000000E+00
  0.4000000E+01  0.0000000E+00  0.4800000E-01  0.6263106E+00  0.5783106E+00  0.1000000E+01  0.3480000E+00  0.0000000E+00  0.0000000E+00
  0.4050000E+01  0.0000000E+00  0.4800000E-01  0.6284957E+00  0.5804957E+00  0.1000000E+01  0.3480000E+00  0.0000000E+00  0.0000000E+00
  0.4100000E+01  0.0000000E+00  0.4800000E-01  0.6306200E+00  0.5826200E+00  0.1000000E+01  0.3480000E+00  0.0000000E+00  0.0000000E+00
  0.4150000E+01  0.0000000E+00  0.4800000E-01  0.6326842E+00  0.5846842E+00  0.1000000E+01  0.3480000E+00  0.0000000E+00  0.0000000E+00
  0.4200000E+01  0.0000000E+00  0.4800000E-01  0.6346885E+00  0.5866885E+00  0.1000000E+01  0.3480000E+00  0.0000000E+00  0.0000000E+00
  0.4250000E+01  0.0000000E+00  0.4800000E-01  0.6366335E+00  0.5886335E+00  0.1000000E+01  0.3480000E+00  0.0000000E+00  0.0000000E+00
  0.4300000E+01  0.0000000E+00  0.4800000E-01  0.6385195E+00  0.5905195E+00  0.1000000E+01  0.3480000E+00  0.0000000E+00  0.0000000E+00
  0.4350000E+01  0.0000000E+00  0.4800000E-01  0.6403470E+00  0.5923470E+00  0.1000000E+01  0.3480000E+00  0.0000000E+00  0.0000000E+00
  0.4400000E+01  0.0000000E+00  0.4800000E-01  0.6421162E+00  0.5941162E+00  0.1000000E+01  0.3480000E+00  0.0000000E+00  0.0000000E+00
  0.4450000E+01  0.0000000E+00  0.4800000E-01  0.6438275E+00  0.5958275E+00  0.1000000E+01  0.3480000E+00  0.0000000E+00  0.0000000E+00
  0.4500000E+01  0.0000000E+00  0.4800000E-01  0.6454813E+00  0.5974813E+00  0.1000000E+01  0.3480000E+00  0.0000000E+00  0.0000000E+00
  0.4550000E+01  0.0000000E+00  0.4800000E-01  0.6470780E+00  0.5990780E+00  0.1000000E+01  0.3480000E+00  0.0000000E+00  0.0000000E+00
  0.4600000E+01  0.0000000E+00  0.4800000E-01  0.6486177E+00  0.6006177E+00  0.1000000E+01  0.3480000E+00  0.0000000E+00  0.0000000E+00
  0.4650000E+01  0.0000000E+00  0.4800000E-01  0.6501009E+00  0.6021009E+00  0.1000000E+01  0.3480000E+00  0.0000000E+00  0.0000000E+00
  0.4700000E+01  0.0000000E+00  0.4800000E-01  0.6515277E+00  0.6035277E+00  0.1000000E+01  0.3480000E+00  0.0000000E+00  0.0000000E+00
  0.4750000E+01  0.0000000E+00  0.4800000E-01  0.6528986E+00  0.6048986E+00  0.1000000E+01  0.3480000E+00  0.0000000E+00  0.0000000E+00