title = "dataset infil1"
variables = "x", "y", "z", "h_w", "p_w", "s_w", "theta_a", "s_a", "theta_g"
zone t = "Flow variables, solution time =  1.160E+00 days        " i =  121, j =    1, k =    1,  f=point
  0.0000000E+00  0.0000000E+00  0.0000000E+00 -0.7250000E+01 -0.7250000E+01  0.3032642E+00  0.1000772E+00  0.6967358E+00  0.2299228E+00
  0.0000000E+00  0.0000000E+00  0.5000000E-01 -0.7200000E+01 -0.7250000E+01  0.3032642E+00  0.1000772E+00  0.6967358E+00  0.2299228E+00
  0.0000000E+00  0.0000000E+00  0.1000000E+00 -0.7150000E+01 -0.7250000E+01  0.3032642E+00  0.1000772E+00  0.6967358E+00  0.2299228E+00
  0.0000000E+00  0.0000000E+00  0.1500000E+00 -0.7100000E+01 -0.7250000E+01  0.3032642E+00  0.1000772E+00  0.6967358E+00  0.2299228E+00
  0.0000000E+00  0.0000000E+00  0.2000000E+00 -0.7050000E+01 -0.7250000E+01  0.3032642E+00  0.1000772E+00  0.6967358E+00  0.2299228E+00
  0.0000000E+00  0.0000000E+00  0.2500000E+00 -0.7000000E+01 -0.7250000E+01  0.3032642E+00  0.1000772E+00  0.6967358E+00  0.2299228E+00
  0.0000000E+00  0.0000000E+00  0.3000000E+00 -0.6950000E+01 -0.7250000E+01  0.3032642E+00  0.1000772E+00  0.6967358E+00  0.2299228E+00
  0.0000000E+00  0.0000000E+00  0.3500000E+00 -0.6900000E+01 -0.7250000E+01  0.3032642E+00  0.1000772E+00  0.6967358E+00  0.2299228E+00
  0.0000000E+00  0.0000000E+00  0.4000000E+00 -0.6850000E+01 -0.7250000E+01  0.3032642E+00  0.1000772E+00  0.6967358E+00  0.2299228E+00
  0.0000000E+00  0.0000000E+00  0.4500000E+00 -0.6800000E+01 -0.7250000E+01  0.3032642E+00  0.1000772E+00  0.6967358E+00  0.2299228E+00
  0.0000000E+00  0.0000000E+00  0.5000000E+00 -0.6750000E+01 -0.7250000E+01  0.3032642E+00  0.1000772E+00  0.6967358E+00  0.2299228E+00
  0.0000000E+00  0.0000000E+00  0.5500000E+00 -0.6700000E+01 -0.7250000E+01  0.3032642E+00  0.1000772E+00  0.6967358E+00  0.2299228E+00
  0.0000000E+00  0.0000000E+00  0.6000000E+00 -0.6650000E+01 -0.7250000E+01  0.3032642E+00  0.1000772E+00  0.6967358E+00  0.2299228E+00
  0.0000000E+00  0.0000000E+00  0.6500000E+00 -0.6600000E+01 -0.7250000E+01  0.3032642E+00  0.1000772E+00  0.6967358E+00  0.2299228E+00
  0.0000000E+00  0.0000000E+00  0.7000000E+00 -0.6550000E+01 -0.7250000E+01  0.3032642E+00  0.1000772E+00  0.6967358E+00  0.2299228E+00
  0.0000000E+00  0.0000000E+00  0.7500000E+00 -0.6500000E+01 -0.7250000E+01  0.3032642E+00  0.1000772E+00  0.6967358E+00  0.2299228E+00
  0.0000000E+00  0.0000000E+00  0.8000000E+00 -0.6450000E+01 -0.7250000E+01  0.3032642E+00  0.1000772E+00  0.6967358E+00  0.2299228E+00
  0.0000000E+00  0.0000000E+00  0.8500000E+00 -0.6400000E+01 -0.7250000E+01  0.3032642E+00  0.1000772E+00  0.6967358E+00  0.2299228E+00
  0.0000000E+00  0.0000000E+00  0.9000000E+00 -0.6350000E+01 -0.7250000E+01  0.3032642E+00  0.1000772E+00  0.6967358E+00  0.2299228E+00
  0.0000000E+00  0.0000000E+00  0.9500000E+00 -0.6300000E+01 -0.7250000E+01  0.3032642E+00  0.1000772E+00  0.6967358E+00  0.2299228E+00
  0.0000000E+00  0.0000000E+00  0.1000000E+01 -0.6250000E+01 -0.7250000E+01  0.3032642E+00  0.1000772E+00  0.6967358E+00  0.2299228E+00
  0.0000000E+00  0.0000000E+00  0.1050000E+01 -0.6200000E+01 -0.7250000E+01  0.3032642E+00  0.1000772E+00  0.6967358E+00  0.2299228E+00
  0.0000000E+00  0.0000000E+00  0.1100000E+01 -0.6150000E+01 -0.7250000E+01  0.3032642E+00  0.1000772E+00  0.6967358E+00  0.2299228E+00
  0.0000000E+00  0.0000000E+00  0.1150000E+01 -0.6100000E+01 -0.7250000E+01  0.3032642E+00  0.1000772E+00  0.6967358E+00  0.2299228E+00
  0.0000000E+00  0.0000000E+00  0.1200000E+01 -0.6050000E+01 -0.7250000E+01  0.3032642E+00  0.1000772E+00  0.6967358E+00  0.2299228E+00
  0.0000000E+00  0.0000000E+00  0.1250000E+01 -0.6000000E+01 -0.7250000E+01  0.3032642E+00  0.1000772E+00  0.6967358E+00  0.2299228E+00
  0.0000000E+00  0.0000000E+00  0.1300000E+01 -0.5950000E+01 -0.7250000E+01  0.3032642E+00  0.1000772E+00  0.6967358E+00  0.2299228E+00
  0.0000000E+00  0.0000000E+00  0.1350000E+01 -0.5900000E+01 -0.7250000E+01  0.3032642E+00  0.1000772E+00  0.6967358E+00  0.2299228E+00
  0.0000000E+00  0.0000000E+00  0.1400000E+01 -0.5850000E+01 -0.7250000E+01  0.3032642E+00  0.1000772E+00  0.6967358E+00  0.2299228E+00
  0.0000000E+00  0.0000000E+00  0.1450000E+01 -0.5800000E+01 -0.7250000E+01  0.3032642E+00  0.1000772E+00  0.6967358E+00  0.2299228E+00
  0.0000000E+00  0.0000000E+00  0.1500000E+01 -0.5750000E+01 -0.7250000E+01  0.3032642E+00  0.1000772E+00  0.6967358E+00  0.2299228E+00
  0.0000000E+00  0.0000000E+00  0.1550000E+01 -0.5700000E+01 -0.7250000E+01  0.3032642E+00  0.1000772E+00  0.6967358E+00  0.2299228E+00
  0.0000000E+00  0.0000000E+00  0.1600000E+01 -0.5650000E+01 -0.7250000E+01  0.3032642E+00  0.1000772E+00  0.6967358E+00  0.2299228E+00
  0.0000000E+00  0.0000000E+00  0.1650000E+01 -0.5600000E+01 -0.7250000E+01  0.3032642E+00  0.1000772E+00  0.6967358E+00  0.2299228E+00
  0.0000000E+00  0.0000000E+00  0.1700000E+01 -0.5550000E+01 -0.7250000E+01  0.3032642E+00  0.1000772E+00  0.6967358E+00  0.2299228E+00
  0.0000000E+00  0.0000000E+00  0.1750000E+01 -0.5500000E+01 -0.7250000E+01  0.3032642E+00  0.1000772E+00  0.6967358E+00  0.2299228E+00
  0.0000000E+00  0.0000000E+00  0.1800000E+01 -0.5450000E+01 -0.7250000E+01  0.3032642E+00  0.1000772E+00  0.6967358E+00  0.2299228E+00
  0.0000000E+00  0.0000000E+00  0.1850000E+01 -0.5400000E+01 -0.7250000E+01  0.3032642E+00  0.1000772E+00  0.6967358E+00  0.2299228E+00
  0.0000000E+00  0.0000000E+00  0.1900000E+01 -0.5350000E+01 -0.7250000E+01  0.3032642E+00  0.1000772E+00  0.6967358E+00  0.2299228E+00
  0.0000000E+00  0.0000000E+00  0.1950000E+01 -0.5300000E+01 -0.7250000E+01  0.3032642E+00  0.1000772E+00  0.6967358E+00  0.2299228E+00
  0.0000000E+00  0.0000000E+00  0.2000000E+01 -0.5250000E+01 -0.7250000E+01  0.3032642E+00  0.1000772E+00  0.6967358E+00  0.2299228E+00
  0.0000000E+00  0.0000000E+00  0.2050000E+01 -0.5200000E+01 -0.7250000E+01  0.3032642E+00  0.1000772E+00  0.6967358E+00  0.2299228E+00
  0.0000000E+00  0.0000000E+00  0.2100000E+01 -0.5150000E+01 -0.7250000E+01  0.3032642E+00  0.1000772E+00  0.6967358E+00  0.2299228E+00
  0.0000000E+00  0.0000000E+00  0.2150000E+01 -0.5100000E+01 -0.7250000E+01  0.3032642E+00  0.1000772E+00  0.6967358E+00  0.2299228E+00
  0.0000000E+00  0.0000000E+00  0.2200000E+01 -0.5050000E+01 -0.7250000E+01  0.3032642E+00  0.1000772E+00  0.6967358E+00  0.2299228E+00
  0.0000000E+00  0.0000000E+00  0.2250000E+01 -0.5000000E+01 -0.7250000E+01  0.3032642E+00  0.1000772E+00  0.6967358E+00  0.2299228E+00
  0.0000000E+00  0.0000000E+00  0.2300000E+01 -0.4950000E+01 -0.7250000E+01  0.3032642E+00  0.1000772E+00  0.6967358E+00  0.2299228E+00
  0.0000000E+00  0.0000000E+00  0.2350000E+01 -0.4900000E+01 -0.7250000E+01  0.3032642E+00  0.1000772E+00  0.6967358E+00  0.2299228E+00
  0.0000000E+00  0.0000000E+00  0.2400000E+01 -0.4850000E+01 -0.7250000E+01  0.3032642E+00  0.1000772E+00  0.6967358E+00  0.2299228E+00
  0.0000000E+00  0.0000000E+00  0.2450000E+01 -0.4800000E+01 -0.7250000E+01  0.3032642E+00  0.1000772E+00  0.6967358E+00  0.2299228E+00
  0.0000000E+00  0.0000000E+00  0.2500000E+01 -0.4750000E+01 -0.7250000E+01  0.3032642E+00  0.1000772E+00  0.6967358E+00  0.2299228E+00
  0.0000000E+00  0.0000000E+00  0.2550000E+01 -0.4700000E+01 -0.7250000E+01  0.3032642E+00  0.1000772E+00  0.6967358E+00  0.2299228E+00
  0.0000000E+00  0.0000000E+00  0.2600000E+01 -0.4650000E+01 -0.7250000E+01  0.3032642E+00  0.1000772E+00  0.6967358E+00  0.2299228E+00
  0.0000000E+00  0.0000000E+00  0.2650000E+01 -0.4600000E+01 -0.7250000E+01  0.3032642E+00  0.1000772E+00  0.6967358E+00  0.2299228E+00
  0.0000000E+00  0.0000000E+00  0.2700000E+01 -0.4550000E+01 -0.7250000E+01  0.3032642E+00  0.1000772E+00  0.6967358E+00  0.2299228E+00
  0.0000000E+00  0.0000000E+00  0.2750000E+01 -0.4500000E+01 -0.7250000E+01  0.3032642E+00  0.1000772E+00  0.6967358E+00  0.2299228E+00
  0.0000000E+00  0.0000000E+00  0.2800000E+01 -0.4450000E+01 -0.7250000E+01  0.3032642E+00  0.1000772E+00  0.6967358E+00  0.2299228E+00
  0.0000000E+00  0.0000000E+00  0.2850000E+01 -0.4400000E+01 -0.7250000E+01  0.3032642E+00  0.1000772E+00  0.6967358E+00  0.2299228E+00
  0.0000000E+00  0.0000000E+00  0.2900000E+01 -0.4350000E+01 -0.7250000E+01  0.3032642E+00  0.1000772E+00  0.6967358E+00  0.2299228E+00
  0.0000000E+00  0.0000000E+00  0.2950000E+01 -0.4300000E+01 -0.7250000E+01  0.3032642E+00  0.1000772E+00  0.6967358E+00  0.2299228E+00
  0.0000000E+00  0.0000000E+00  0.3000000E+01 -0.4250000E+01 -0.7250000E+01  0.3032642E+00  0.1000772E+00  0.6967358E+00  0.2299228E+00
  0.0000000E+00  0.0000000E+00  0.3050000E+01 -0.4200000E+01 -0.7250000E+01  0.3032642E+00  0.1000772E+00  0.6967358E+00  0.2299228E+00
  0.0000000E+00  0.0000000E+00  0.3100000E+01 -0.4150000E+01 -0.7250000E+01  0.3032642E+00  0.1000772E+00  0.6967358E+00  0.2299228E+00
  0.0000000E+00  0.0000000E+00  0.3150000E+01 -0.4100000E+01 -0.7250000E+01  0.3032642E+00  0.1000772E+00  0.6967358E+00  0.2299228E+00
  0.0000000E+00  0.0000000E+00  0.3200000E+01 -0.4050000E+01 -0.7250000E+01  0.3032642E+00  0.1000772E+00  0.6967358E+00  0.2299228E+00
  0.0000000E+00  0.0000000E+00  0.3250000E+01 -0.4000000E+01 -0.7250000E+01  0.3032642E+00  0.1000772E+00  0.6967358E+00  0.2299228E+00
  0.0000000E+00  0.0000000E+00  0.3300000E+01 -0.3950000E+01 -0.7250000E+01  0.3032642E+00  0.1000772E+00  0.6967358E+00  0.2299228E+00
  0.0000000E+00  0.0000000E+00  0.3350000E+01 -0.3900000E+01 -0.7250000E+01  0.3032642E+00  0.1000772E+00  0.6967358E+00  0.2299228E+00
  0.0000000E+00  0.0000000E+00  0.3400000E+01 -0.3850000E+01 -0.7250000E+01  0.3032642E+00  0.1000772E+00  0.6967358E+00  0.2299228E+00
  0.0000000E+00  0.0000000E+00  0.3450000E+01 -0.3800000E+01 -0.7250000E+01  0.3032642E+00  0.1000772E+00  0.6967358E+00  0.2299228E+00
  0.0000000E+00  0.0000000E+00  0.3500000E+01 -0.3750000E+01 -0.7250000E+01  0.3032642E+00  0.1000772E+00  0.6967358E+00  0.2299228E+00
  0.0000000E+00  0.0000000E+00  0.3550000E+01 -0.3700000E+01 -0.7250000E+01  0.3032642E+00  0.1000772E+00  0.6967358E+00  0.2299228E+00
  0.0000000E+00  0.0000000E+00  0.3600000E+01 -0.3650000E+01 -0.7250000E+01  0.3032642E+00  0.1000772E+00  0.6967358E+00  0.2299228E+00
  0.0000000E+00  0.0000000E+00  0.3650000E+01 -0.3600000E+01 -0.7250000E+01  0.3032642E+00  0.1000772E+00  0.6967358E+00  0.2299228E+00
  0.0000000E+00  0.0000000E+00  0.3700000E+01 -0.3550000E+01 -0.7250000E+01  0.3032642E+00  0.1000772E+00  0.6967358E+00  0.2299228E+00
  0.0000000E+00  0.0000000E+00  0.3750000E+01 -0.3500000E+01 -0.7250000E+01  0.3032642E+00  0.1000772E+00  0.6967358E+00  0.2299228E+00
  0.0000000E+00  0.0000000E+00  0.3800000E+01 -0.3450000E+01 -0.7250000E+01  0.3032642E+00  0.1000772E+00  0.6967358E+00  0.2299228E+00
  0.0000000E+00  0.0000000E+00  0.3850000E+01 -0.3400000E+01 -0.7250000E+01  0.3032642E+00  0.1000772E+00  0.6967358E+00  0.2299228E+00
  0.0000000E+00  0.0000000E+00  0.3900000E+01 -0.3350000E+01 -0.7250000E+01  0.3032642E+00  0.1000772E+00  0.6967358E+00  0.2299228E+00
  0.0000000E+00  0.0000000E+00  0.3950000E+01 -0.3300000E+01 -0.7250000E+01  0.3032642E+00  0.1000772E+00  0.6967358E+00  0.2299228E+00
  0.0000000E+00  0.0000000E+00  0.4000000E+01 -0.3250000E+01 -0.7250000E+01  0.3032642E+00  0.1000772E+00  0.6967358E+00  0.2299228E+00
  0.0000000E+00  0.0000000E+00  0.4050000E+01 -0.3200000E+01 -0.7250000E+01  0.3032642E+00  0.1000772E+00  0.6967358E+00  0.2299228E+00
  0.0000000E+00  0.0000000E+00  0.4100000E+01 -0.3150000E+01 -0.7250000E+01  0.3032642E+00  0.1000772E+00  0.6967358E+00  0.2299228E+00
  0.0000000E+00  0.0000000E+00  0.4150000E+01 -0.3100000E+01 -0.7250000E+01  0.3032642E+00  0.1000772E+00  0.6967358E+00  0.2299228E+00
  0.0000000E+00  0.0000000E+00  0.4200000E+01 -0.3050000E+01 -0.7250000E+01  0.3032642E+00  0.1000772E+00  0.6967358E+00  0.2299228E+00
  0.0000000E+00  0.0000000E+00  0.4250000E+01 -0.3000000E+01 -0.7250000E+01  0.3032642E+00  0.1000772E+00  0.6967358E+00  0.2299228E+00
  0.0000000E+00  0.0000000E+00  0.4300000E+01 -0.2950000E+01 -0.7250000E+01  0.3032642E+00  0.1000772E+00  0.6967358E+00  0.2299228E+00
  0.0000000E+00  0.0000000E+00  0.4350000E+01 -0.2900000E+01 -0.7250000E+01  0.3032642E+00  0.1000772E+00  0.6967358E+00  0.2299228E+00
  0.0000000E+00  0.0000000E+00  0.4400000E+01 -0.2850000E+01 -0.7250000E+01  0.3032642E+00  0.1000772E+00  0.6967358E+00  0.2299228E+00
  0.0000000E+00  0.0000000E+00  0.4450000E+01 -0.2800000E+01 -0.7250000E+01  0.3032642E+00  0.1000772E+00  0.6967358E+00  0.2299228E+00
  0.0000000E+00  0.0000000E+00  0.4500000E+01 -0.2750000E+01 -0.7250000E+01  0.3032642E+00  0.1000772E+00  0.6967358E+00  0.2299228E+00
  0.0000000E+00  0.0000000E+00  0.4550000E+01 -0.2699996E+01 -0.7249996E+01  0.3032643E+00  0.1000772E+00  0.6967357E+00  0.2299228E+00
  0.0000000E+00  0.0000000E+00  0.4600000E+01 -0.2649953E+01 -0.7249953E+01  0.3032651E+00  0.1000775E+00  0.6967349E+00  0.2299225E+00
  0.0000000E+00  0.0000000E+00  0.4650000E+01 -0.2599505E+01 -0.7249505E+01  0.3032744E+00  0.1000805E+00  0.6967256E+00  0.2299195E+00
  0.0000000E+00  0.0000000E+00  0.4700000E+01 -0.2544792E+01 -0.7244792E+01  0.3033713E+00  0.1001125E+00  0.6966287E+00  0.2298875E+00
  0.0000000E+00  0.0000000E+00  0.4750000E+01 -0.2446075E+01 -0.7196075E+01  0.3043788E+00  0.1004450E+00  0.6956212E+00  0.2295550E+00
  0.0000000E+00  0.0000000E+00  0.4800000E+01 -0.1968655E+01 -0.6768655E+01  0.3136623E+00  0.1035085E+00  0.6863377E+00  0.2264915E+00
  0.0000000E+00  0.0000000E+00  0.4850000E+01 -0.1998477E+00 -0.5049848E+01  0.3616541E+00  0.1193458E+00  0.6383459E+00  0.2106542E+00
  0.0000000E+00  0.0000000E+00  0.4900000E+01  0.1947110E+01 -0.2952890E+01  0.4652310E+00  0.1535262E+00  0.5347690E+00  0.1764738E+00
  0.0000000E+00  0.0000000E+00  0.4950000E+01  0.3278661E+01 -0.1671339E+01  0.5939371E+00  0.1959993E+00  0.4060629E+00  0.1340007E+00
  0.0000000E+00  0.0000000E+00  0.5000000E+01  0.4001315E+01 -0.9986846E+00  0.7153361E+00  0.2360609E+00  0.2846639E+00  0.9393908E-01
  0.0000000E+00  0.0000000E+00  0.5050000E+01  0.4418232E+01 -0.6317675E+00  0.8120632E+00  0.2679809E+00  0.1879368E+00  0.6201914E-01
  0.0000000E+00  0.0000000E+00  0.5100000E+01  0.4683794E+01 -0.4162056E+00  0.8810606E+00  0.2907500E+00  0.1189394E+00  0.3925001E-01
  0.0000000E+00  0.0000000E+00  0.5150000E+01  0.4868821E+01 -0.2811789E+00  0.9268783E+00  0.3058698E+00  0.7312174E-01  0.2413017E-01
  0.0000000E+00  0.0000000E+00  0.5200000E+01  0.5007362E+01 -0.1926382E+00  0.9559545E+00  0.3154650E+00  0.4404550E-01  0.1453501E-01
  0.0000000E+00  0.0000000E+00  0.5250000E+01  0.5117135E+01 -0.1328649E+00  0.9738690E+00  0.3213768E+00  0.2613095E-01  0.8623215E-02
  0.0000000E+00  0.0000000E+00  0.5300000E+01  0.5208113E+01 -0.9188668E-01  0.9846698E+00  0.3249410E+00  0.1533017E-01  0.5058955E-02
  0.0000000E+00  0.0000000E+00  0.5350000E+01  0.5286319E+01 -0.6368108E-01  0.9910600E+00  0.3270498E+00  0.8939969E-02  0.2950190E-02
  0.0000000E+00  0.0000000E+00  0.5400000E+01  0.5355623E+01 -0.4437714E-01  0.9947718E+00  0.3282747E+00  0.5228216E-02  0.1725311E-02
  0.0000000E+00  0.0000000E+00  0.5450000E+01  0.5418653E+01 -0.3134746E-01  0.9968894E+00  0.3289735E+00  0.3110649E-02  0.1026514E-02
  0.0000000E+00  0.0000000E+00  0.5500000E+01  0.5477271E+01 -0.2272855E-01  0.9980787E+00  0.3293660E+00  0.1921311E-02  0.6340325E-03
  0.0000000E+00  0.0000000E+00  0.5550000E+01  0.5532838E+01 -0.1716212E-01  0.9987398E+00  0.3295841E+00  0.1260191E-02  0.4158630E-03
  0.0000000E+00  0.0000000E+00  0.5600000E+01  0.5586346E+01 -0.1365407E-01  0.9991063E+00  0.3297051E+00  0.8937050E-03  0.2949226E-03
  0.0000000E+00  0.0000000E+00  0.5650000E+01  0.5638509E+01 -0.1149140E-01  0.9993104E+00  0.3297724E+00  0.6895843E-03  0.2275628E-03
  0.0000000E+00  0.0000000E+00  0.5700000E+01  0.5689819E+01 -0.1018145E-01  0.9994252E+00  0.3298103E+00  0.5748128E-03  0.1896882E-03
  0.0000000E+00  0.0000000E+00  0.5750000E+01  0.5740602E+01 -0.9398124E-02  0.9994904E+00  0.3298318E+00  0.5095907E-03  0.1681649E-03
  0.0000000E+00  0.0000000E+00  0.5800000E+01  0.5791066E+01 -0.8933747E-02  0.9995278E+00  0.3298442E+00  0.4721831E-03  0.1558204E-03
  0.0000000E+00  0.0000000E+00  0.5850000E+01  0.5841340E+01 -0.8659974E-02  0.9995494E+00  0.3298513E+00  0.4505806E-03  0.1486916E-03
  0.0000000E+00  0.0000000E+00  0.5900000E+01  0.5891501E+01 -0.8499126E-02  0.9995620E+00  0.3298554E+00  0.4380472E-03  0.1445556E-03
  0.0000000E+00  0.0000000E+00  0.5950000E+01  0.5941595E+01 -0.8404821E-02  0.9995692E+00  0.3298579E+00  0.4307542E-03  0.1421489E-03
  0.0000000E+00  0.0000000E+00  0.6000000E+01  0.5991650E+01 -0.8349600E-02  0.9995735E+00  0.3298593E+00  0.4265027E-03  0.1407459E-03
