title = "dataset infil1"
variables = "x", "y", "z", "h_w", "p_w", "s_w", "theta_a", "s_a", "theta_g"
zone t = "Flow variables, solution time =  7.160E+00 days        " i =  121, j =    1, k =    1,  f=point
  0.0000000E+00  0.0000000E+00  0.0000000E+00 -0.7250000E+01 -0.7250000E+01  0.3032642E+00  0.1000772E+00  0.6967358E+00  0.2299228E+00
  0.0000000E+00  0.0000000E+00  0.5000000E-01 -0.1407845E+01 -0.1457845E+01  0.6264200E+00  0.2067186E+00  0.3735800E+00  0.1232814E+00
  0.0000000E+00  0.0000000E+00  0.1000000E+00 -0.5450879E+00 -0.6450879E+00  0.8080799E+00  0.2666664E+00  0.1919201E+00  0.6333363E-01
  0.0000000E+00  0.0000000E+00  0.1500000E+00 -0.2142115E+00 -0.3642115E+00  0.8986603E+00  0.2965579E+00  0.1013397E+00  0.3344210E-01
  0.0000000E+00  0.0000000E+00  0.2000000E+00 -0.2661413E-01 -0.2266141E+00  0.9450384E+00  0.3118627E+00  0.5496162E-01  0.1813734E-01
  0.0000000E+00  0.0000000E+00  0.2500000E+00  0.1025113E+00 -0.1474887E+00  0.9696824E+00  0.3199952E+00  0.3031761E-01  0.1000481E-01
  0.0000000E+00  0.0000000E+00  0.3000000E+00  0.2018017E+00 -0.9819832E-01  0.9831103E+00  0.3244264E+00  0.1688968E-01  0.5573593E-02
  0.0000000E+00  0.0000000E+00  0.3500000E+00  0.2837222E+00 -0.6627780E-01  0.9905158E+00  0.3268702E+00  0.9484204E-02  0.3129787E-02
  0.0000000E+00  0.0000000E+00  0.4000000E+00  0.3546912E+00 -0.4530884E-01  0.9946074E+00  0.3282204E+00  0.5392624E-02  0.1779566E-02
  0.0000000E+00  0.0000000E+00  0.4500000E+00  0.4184386E+00 -0.3156138E-01  0.9968575E+00  0.3289630E+00  0.3142473E-02  0.1037016E-02
  0.0000000E+00  0.0000000E+00  0.5000000E+00  0.4773355E+00 -0.2266453E-01  0.9980868E+00  0.3293686E+00  0.1913197E-02  0.6313549E-03
  0.0000000E+00  0.0000000E+00  0.5500000E+00  0.5329822E+00 -0.1701778E-01  0.9987557E+00  0.3295894E+00  0.1244303E-02  0.4106200E-03
  0.0000000E+00  0.0000000E+00  0.6000000E+00  0.5864895E+00 -0.1351048E-01  0.9991204E+00  0.3297097E+00  0.8796133E-03  0.2902724E-03
  0.0000000E+00  0.0000000E+00  0.6500000E+00  0.6386247E+00 -0.1137526E-01  0.9993209E+00  0.3297759E+00  0.6791299E-03  0.2241129E-03
  0.0000000E+00  0.0000000E+00  0.7000000E+00  0.6899037E+00 -0.1009625E-01  0.9994324E+00  0.3298127E+00  0.5675925E-03  0.1873055E-03
  0.0000000E+00  0.0000000E+00  0.7500000E+00  0.7406609E+00 -0.9339075E-02  0.9994952E+00  0.3298334E+00  0.5047813E-03  0.1665778E-03
  0.0000000E+00  0.0000000E+00  0.8000000E+00  0.7911057E+00 -0.8894346E-02  0.9995309E+00  0.3298452E+00  0.4690533E-03  0.1547876E-03
  0.0000000E+00  0.0000000E+00  0.8500000E+00  0.8413656E+00 -0.8634438E-02  0.9995514E+00  0.3298520E+00  0.4485829E-03  0.1480324E-03
  0.0000000E+00  0.0000000E+00  0.9000000E+00  0.8915170E+00 -0.8483008E-02  0.9995632E+00  0.3298559E+00  0.4367978E-03  0.1441433E-03
  0.0000000E+00  0.0000000E+00  0.9500000E+00  0.9416051E+00 -0.8394942E-02  0.9995700E+00  0.3298581E+00  0.4299925E-03  0.1418975E-03
  0.0000000E+00  0.0000000E+00  0.1000000E+01  0.9916562E+00 -0.8343782E-02  0.9995739E+00  0.3298594E+00  0.4260556E-03  0.1405983E-03
  0.0000000E+00  0.0000000E+00  0.1050000E+01  0.1041686E+01 -0.8314080E-02  0.9995762E+00  0.3298602E+00  0.4237754E-03  0.1398459E-03
  0.0000000E+00  0.0000000E+00  0.1100000E+01  0.1091703E+01 -0.8296842E-02  0.9995775E+00  0.3298606E+00  0.4224540E-03  0.1394098E-03
  0.0000000E+00  0.0000000E+00  0.1150000E+01  0.1141713E+01 -0.8286840E-02  0.9995783E+00  0.3298608E+00  0.4216879E-03  0.1391570E-03
  0.0000000E+00  0.0000000E+00  0.1200000E+01  0.1191719E+01 -0.8281037E-02  0.9995788E+00  0.3298610E+00  0.4212437E-03  0.1390104E-03
  0.0000000E+00  0.0000000E+00  0.1250000E+01  0.1241722E+01 -0.8277671E-02  0.9995790E+00  0.3298611E+00  0.4209860E-03  0.1389254E-03
  0.0000000E+00  0.0000000E+00  0.1300000E+01  0.1291724E+01 -0.8275718E-02  0.9995792E+00  0.3298611E+00  0.4208366E-03  0.1388761E-03
  0.0000000E+00  0.0000000E+00  0.1350000E+01  0.1341725E+01 -0.8274585E-02  0.9995793E+00  0.3298612E+00  0.4207499E-03  0.1388475E-03
  0.0000000E+00  0.0000000E+00  0.1400000E+01  0.1391726E+01 -0.8273928E-02  0.9995793E+00  0.3298612E+00  0.4206996E-03  0.1388309E-03
  0.0000000E+00  0.0000000E+00  0.1450000E+01  0.1441726E+01 -0.8273547E-02  0.9995793E+00  0.3298612E+00  0.4206705E-03  0.1388213E-03
  0.0000000E+00  0.0000000E+00  0.1500000E+01  0.1491727E+01 -0.8273325E-02  0.9995793E+00  0.3298612E+00  0.4206535E-03  0.1388157E-03
  0.0000000E+00  0.0000000E+00  0.1550000E+01  0.1541727E+01 -0.8273197E-02  0.9995794E+00  0.3298612E+00  0.4206437E-03  0.1388124E-03
  0.0000000E+00  0.0000000E+00  0.1600000E+01  0.1591727E+01 -0.8273123E-02  0.9995794E+00  0.3298612E+00  0.4206380E-03  0.1388106E-03
  0.0000000E+00  0.0000000E+00  0.1650000E+01  0.1641727E+01 -0.8273080E-02  0.9995794E+00  0.3298612E+00  0.4206347E-03  0.1388095E-03
  0.0000000E+00  0.0000000E+00  0.1700000E+01  0.1691727E+01 -0.8273055E-02  0.9995794E+00  0.3298612E+00  0.4206328E-03  0.1388088E-03
  0.0000000E+00  0.0000000E+00  0.1750000E+01  0.1741727E+01 -0.8273040E-02  0.9995794E+00  0.3298612E+00  0.4206317E-03  0.1388085E-03
  0.0000000E+00  0.0000000E+00  0.1800000E+01  0.1791727E+01 -0.8273032E-02  0.9995794E+00  0.3298612E+00  0.4206311E-03  0.1388082E-03
  0.0000000E+00  0.0000000E+00  0.1850000E+01  0.1841727E+01 -0.8273027E-02  0.9995794E+00  0.3298612E+00  0.4206307E-03  0.1388081E-03
  0.0000000E+00  0.0000000E+00  0.1900000E+01  0.1891727E+01 -0.8273024E-02  0.9995794E+00  0.3298612E+00  0.4206305E-03  0.1388081E-03
  0.0000000E+00  0.0000000E+00  0.1950000E+01  0.1941727E+01 -0.8273022E-02  0.9995794E+00  0.3298612E+00  0.4206303E-03  0.1388080E-03
  0.0000000E+00  0.0000000E+00  0.2000000E+01  0.1991727E+01 -0.8273021E-02  0.9995794E+00  0.3298612E+00  0.4206303E-03  0.1388080E-03
  0.0000000E+00  0.0000000E+00  0.2050000E+01  0.2041727E+01 -0.8273021E-02  0.9995794E+00  0.3298612E+00  0.4206302E-03  0.1388080E-03
  0.0000000E+00  0.0000000E+00  0.2100000E+01  0.2091727E+01 -0.8273020E-02  0.9995794E+00  0.3298612E+00  0.4206302E-03  0.1388080E-03
  0.0000000E+00  0.0000000E+00  0.2150000E+01  0.2141727E+01 -0.8273020E-02  0.9995794E+00  0.3298612E+00  0.4206302E-03  0.1388080E-03
  0.0000000E+00  0.0000000E+00  0.2200000E+01  0.2191727E+01 -0.8273020E-02  0.9995794E+00  0.3298612E+00  0.4206302E-03  0.1388080E-03
  0.0000000E+00  0.0000000E+00  0.2250000E+01  0.2241727E+01 -0.8273020E-02  0.9995794E+00  0.3298612E+00  0.4206302E-03  0.1388080E-03
  0.0000000E+00  0.0000000E+00  0.2300000E+01  0.2291727E+01 -0.8273020E-02  0.9995794E+00  0.3298612E+00  0.4206302E-03  0.1388080E-03
  0.0000000E+00  0.0000000E+00  0.2350000E+01  0.2341727E+01 -0.8273020E-02  0.9995794E+00  0.3298612E+00  0.4206302E-03  0.1388080E-03
  0.0000000E+00  0.0000000E+00  0.2400000E+01  0.2391727E+01 -0.8273020E-02  0.9995794E+00  0.3298612E+00  0.4206302E-03  0.1388080E-03
  0.0000000E+00  0.0000000E+00  0.2450000E+01  0.2441727E+01 -0.8273020E-02  0.9995794E+00  0.3298612E+00  0.4206302E-03  0.1388080E-03
  0.0000000E+00  0.0000000E+00  0.2500000E+01  0.2491727E+01 -0.8273020E-02  0.9995794E+00  0.3298612E+00  0.4206302E-03  0.1388080E-03
  0.0000000E+00  0.0000000E+00  0.2550000E+01  0.2541727E+01 -0.8273020E-02  0.9995794E+00  0.3298612E+00  0.4206302E-03  0.1388080E-03
  0.0000000E+00  0.0000000E+00  0.2600000E+01  0.2591727E+01 -0.8273020E-02  0.9995794E+00  0.3298612E+00  0.4206302E-03  0.1388080E-03
  0.0000000E+00  0.0000000E+00  0.2650000E+01  0.2641727E+01 -0.8273020E-02  0.9995794E+00  0.3298612E+00  0.4206302E-03  0.1388080E-03
  0.0000000E+00  0.0000000E+00  0.2700000E+01  0.2691727E+01 -0.8273020E-02  0.9995794E+00  0.3298612E+00  0.4206302E-03  0.1388080E-03
  0.0000000E+00  0.0000000E+00  0.2750000E+01  0.2741727E+01 -0.8273020E-02  0.9995794E+00  0.3298612E+00  0.4206302E-03  0.1388080E-03
  0.0000000E+00  0.0000000E+00  0.2800000E+01  0.2791727E+01 -0.8273020E-02  0.9995794E+00  0.3298612E+00  0.4206302E-03  0.1388080E-03
  0.0000000E+00  0.0000000E+00  0.2850000E+01  0.2841727E+01 -0.8273020E-02  0.9995794E+00  0.3298612E+00  0.4206302E-03  0.1388080E-03
  0.0000000E+00  0.0000000E+00  0.2900000E+01  0.2891727E+01 -0.8273020E-02  0.9995794E+00  0.3298612E+00  0.4206302E-03  0.1388080E-03
  0.0000000E+00  0.0000000E+00  0.2950000E+01  0.2941727E+01 -0.8273020E-02  0.9995794E+00  0.3298612E+00  0.4206302E-03  0.1388080E-03
  0.0000000E+00  0.0000000E+00  0.3000000E+01  0.2991727E+01 -0.8273020E-02  0.9995794E+00  0.3298612E+00  0.4206302E-03  0.1388080E-03
  0.0000000E+00  0.0000000E+00  0.3050000E+01  0.3041727E+01 -0.8273020E-02  0.9995794E+00  0.3298612E+00  0.4206302E-03  0.1388080E-03
  0.0000000E+00  0.0000000E+00  0.3100000E+01  0.3091727E+01 -0.8273020E-02  0.9995794E+00  0.3298612E+00  0.4206302E-03  0.1388080E-03
  0.0000000E+00  0.0000000E+00  0.3150000E+01  0.3141727E+01 -0.8273020E-02  0.9995794E+00  0.3298612E+00  0.4206302E-03  0.1388080E-03
  0.0000000E+00  0.0000000E+00  0.3200000E+01  0.3191727E+01 -0.8273020E-02  0.9995794E+00  0.3298612E+00  0.4206302E-03  0.1388080E-03
  0.0000000E+00  0.0000000E+00  0.3250000E+01  0.3241727E+01 -0.8273020E-02  0.9995794E+00  0.3298612E+00  0.4206302E-03  0.1388080E-03
  0.0000000E+00  0.0000000E+00  0.3300000E+01  0.3291727E+01 -0.8273020E-02  0.9995794E+00  0.3298612E+00  0.4206302E-03  0.1388080E-03
  0.0000000E+00  0.0000000E+00  0.3350000E+01  0.3341727E+01 -0.8273020E-02  0.9995794E+00  0.3298612E+00  0.4206302E-03  0.1388080E-03
  0.0000000E+00  0.0000000E+00  0.3400000E+01  0.3391727E+01 -0.8273020E-02  0.9995794E+00  0.3298612E+00  0.4206302E-03  0.1388080E-03
  0.0000000E+00  0.0000000E+00  0.3450000E+01  0.3441727E+01 -0.8273020E-02  0.9995794E+00  0.3298612E+00  0.4206302E-03  0.1388080E-03
  0.0000000E+00  0.0000000E+00  0.3500000E+01  0.3491727E+01 -0.8273020E-02  0.9995794E+00  0.3298612E+00  0.4206302E-03  0.1388080E-03
  0.0000000E+00  0.0000000E+00  0.3550000E+01  0.3541727E+01 -0.8273020E-02  0.9995794E+00  0.3298612E+00  0.4206302E-03  0.1388080E-03
  0.0000000E+00  0.0000000E+00  0.3600000E+01  0.3591727E+01 -0.8273020E-02  0.9995794E+00  0.3298612E+00  0.4206302E-03  0.1388080E-03
  0.0000000E+00  0.0000000E+00  0.3650000E+01  0.3641727E+01 -0.8273020E-02  0.9995794E+00  0.3298612E+00  0.4206302E-03  0.1388080E-03
  0.0000000E+00  0.0000000E+00  0.3700000E+01  0.3691727E+01 -0.8273020E-02  0.9995794E+00  0.3298612E+00  0.4206302E-03  0.1388080E-03
  0.0000000E+00  0.0000000E+00  0.3750000E+01  0.3741727E+01 -0.8273020E-02  0.9995794E+00  0.3298612E+00  0.4206302E-03  0.1388080E-03
  0.0000000E+00  0.0000000E+00  0.3800000E+01  0.3791727E+01 -0.8273020E-02  0.9995794E+00  0.3298612E+00  0.4206302E-03  0.1388080E-03
  0.0000000E+00  0.0000000E+00  0.3850000E+01  0.3841727E+01 -0.8273020E-02  0.9995794E+00  0.3298612E+00  0.4206302E-03  0.1388080E-03
  0.0000000E+00  0.0000000E+00  0.3900000E+01  0.3891727E+01 -0.8273020E-02  0.9995794E+00  0.3298612E+00  0.4206302E-03  0.1388080E-03
  0.0000000E+00  0.0000000E+00  0.3950000E+01  0.3941727E+01 -0.8273020E-02  0.9995794E+00  0.3298612E+00  0.4206302E-03  0.1388080E-03
  0.0000000E+00  0.0000000E+00  0.4000000E+01  0.3991727E+01 -0.8273020E-02  0.9995794E+00  0.3298612E+00  0.4206302E-03  0.1388080E-03
  0.0000000E+00  0.0000000E+00  0.4050000E+01  0.4041727E+01 -0.8273020E-02  0.9995794E+00  0.3298612E+00  0.4206302E-03  0.1388080E-03
  0.0000000E+00  0.0000000E+00  0.4100000E+01  0.4091727E+01 -0.8273020E-02  0.9995794E+00  0.3298612E+00  0.4206302E-03  0.1388080E-03
  0.0000000E+00  0.0000000E+00  0.4150000E+01  0.4141727E+01 -0.8273020E-02  0.9995794E+00  0.3298612E+00  0.4206302E-03  0.1388080E-03
  0.0000000E+00  0.0000000E+00  0.4200000E+01  0.4191727E+01 -0.8273020E-02  0.9995794E+00  0.3298612E+00  0.4206302E-03  0.1388080E-03
  0.0000000E+00  0.0000000E+00  0.4250000E+01  0.4241727E+01 -0.8273020E-02  0.9995794E+00  0.3298612E+00  0.4206302E-03  0.1388080E-03
  0.0000000E+00  0.0000000E+00  0.4300000E+01  0.4291727E+01 -0.8273020E-02  0.9995794E+00  0.3298612E+00  0.4206302E-03  0.1388080E-03
  0.0000000E+00  0.0000000E+00  0.4350000E+01  0.4341727E+01 -0.8273020E-02  0.9995794E+00  0.3298612E+00  0.4206302E-03  0.1388080E-03
  0.0000000E+00  0.0000000E+00  0.4400000E+01  0.4391727E+01 -0.8273020E-02  0.9995794E+00  0.3298612E+00  0.4206302E-03  0.1388080E-03
  0.0000000E+00  0.0000000E+00  0.4450000E+01  0.4441727E+01 -0.8273020E-02  0.9995794E+00  0.3298612E+00  0.4206302E-03  0.1388080E-03
  0.0000000E+00  0.0000000E+00  0.4500000E+01  0.4491727E+01 -0.8273020E-02  0.9995794E+00  0.3298612E+00  0.4206302E-03  0.1388080E-03
  0.0000000E+00  0.0000000E+00  0.4550000E+01  0.4541727E+01 -0.8273020E-02  0.9995794E+00  0.3298612E+00  0.4206302E-03  0.1388080E-03
  0.0000000E+00  0.0000000E+00  0.4600000E+01  0.4591727E+01 -0.8273020E-02  0.9995794E+00  0.3298612E+00  0.4206302E-03  0.1388080E-03
  0.0000000E+00  0.0000000E+00  0.4650000E+01  0.4641727E+01 -0.8273020E-02  0.9995794E+00  0.3298612E+00  0.4206302E-03  0.1388080E-03
  0.0000000E+00  0.0000000E+00  0.4700000E+01  0.4691727E+01 -0.8273020E-02  0.9995794E+00  0.3298612E+00  0.4206302E-03  0.1388080E-03
  0.0000000E+00  0.0000000E+00  0.4750000E+01  0.4741727E+01 -0.8273020E-02  0.9995794E+00  0.3298612E+00  0.4206302E-03  0.1388080E-03
  0.0000000E+00  0.0000000E+00  0.4800000E+01  0.4791727E+01 -0.8273020E-02  0.9995794E+00  0.3298612E+00  0.4206302E-03  0.1388080E-03
  0.0000000E+00  0.0000000E+00  0.4850000E+01  0.4841727E+01 -0.8273020E-02  0.9995794E+00  0.3298612E+00  0.4206302E-03  0.1388080E-03
  0.0000000E+00  0.0000000E+00  0.4900000E+01  0.4891727E+01 -0.8273020E-02  0.9995794E+00  0.3298612E+00  0.4206302E-03  0.1388080E-03
  0.0000000E+00  0.0000000E+00  0.4950000E+01  0.4941727E+01 -0.8273020E-02  0.9995794E+00  0.3298612E+00  0.4206302E-03  0.1388080E-03
  0.0000000E+00  0.0000000E+00  0.5000000E+01  0.4991727E+01 -0.8273020E-02  0.9995794E+00  0.3298612E+00  0.4206302E-03  0.1388080E-03
  0.0000000E+00  0.0000000E+00  0.5050000E+01  0.5041727E+01 -0.8273020E-02  0.9995794E+00  0.3298612E+00  0.4206302E-03  0.1388080E-03
  0.0000000E+00  0.0000000E+00  0.5100000E+01  0.5091727E+01 -0.8273020E-02  0.9995794E+00  0.3298612E+00  0.4206302E-03  0.1388080E-03
  0.0000000E+00  0.0000000E+00  0.5150000E+01  0.5141727E+01 -0.8273020E-02  0.9995794E+00  0.3298612E+00  0.4206302E-03  0.1388080E-03
  0.0000000E+00  0.0000000E+00  0.5200000E+01  0.5191727E+01 -0.8273020E-02  0.9995794E+00  0.3298612E+00  0.4206302E-03  0.1388080E-03
  0.0000000E+00  0.0000000E+00  0.5250000E+01  0.5241727E+01 -0.8273020E-02  0.9995794E+00  0.3298612E+00  0.4206302E-03  0.1388080E-03
  0.0000000E+00  0.0000000E+00  0.5300000E+01  0.5291727E+01 -0.8273020E-02  0.9995794E+00  0.3298612E+00  0.4206302E-03  0.1388080E-03
  0.0000000E+00  0.0000000E+00  0.5350000E+01  0.5341727E+01 -0.8273020E-02  0.9995794E+00  0.3298612E+00  0.4206302E-03  0.1388080E-03
  0.0000000E+00  0.0000000E+00  0.5400000E+01  0.5391727E+01 -0.8273020E-02  0.9995794E+00  0.3298612E+00  0.4206302E-03  0.1388080E-03
  0.0000000E+00  0.0000000E+00  0.5450000E+01  0.5441727E+01 -0.8273020E-02  0.9995794E+00  0.3298612E+00  0.4206302E-03  0.1388080E-03
  0.0000000E+00  0.0000000E+00  0.5500000E+01  0.5491727E+01 -0.8273020E-02  0.9995794E+00  0.3298612E+00  0.4206302E-03  0.1388080E-03
  0.0000000E+00  0.0000000E+00  0.5550000E+01  0.5541727E+01 -0.8273020E-02  0.9995794E+00  0.3298612E+00  0.4206302E-03  0.1388080E-03
  0.0000000E+00  0.0000000E+00  0.5600000E+01  0.5591727E+01 -0.8273020E-02  0.9995794E+00  0.3298612E+00  0.4206302E-03  0.1388080E-03
  0.0000000E+00  0.0000000E+00  0.5650000E+01  0.5641727E+01 -0.8273020E-02  0.9995794E+00  0.3298612E+00  0.4206302E-03  0.1388080E-03
  0.0000000E+00  0.0000000E+00  0.5700000E+01  0.5691727E+01 -0.8273020E-02  0.9995794E+00  0.3298612E+00  0.4206302E-03  0.1388080E-03
  0.0000000E+00  0.0000000E+00  0.5750000E+01  0.5741727E+01 -0.8273020E-02  0.9995794E+00  0.3298612E+00  0.4206302E-03  0.1388080E-03
  0.0000000E+00  0.0000000E+00  0.5800000E+01  0.5791727E+01 -0.8273020E-02  0.9995794E+00  0.3298612E+00  0.4206302E-03  0.1388080E-03
  0.0000000E+00  0.0000000E+00  0.5850000E+01  0.5841727E+01 -0.8273020E-02  0.9995794E+00  0.3298612E+00  0.4206302E-03  0.1388080E-03
  0.0000000E+00  0.0000000E+00  0.5900000E+01  0.5891727E+01 -0.8273020E-02  0.9995794E+00  0.3298612E+00  0.4206302E-03  0.1388080E-03
  0.0000000E+00  0.0000000E+00  0.5950000E+01  0.5941727E+01 -0.8273020E-02  0.9995794E+00  0.3298612E+00  0.4206302E-03  0.1388080E-03
  0.0000000E+00  0.0000000E+00  0.6000000E+01  0.5991727E+01 -0.8273020E-02  0.9995794E+00  0.3298612E+00  0.4206302E-03  0.1388080E-03
