title = "dataset infil1"
variables = "x", "y", "z", "h_w", "p_w", "s_w", "theta_a", "s_a", "theta_g"
zone t = "Flow variables, solution time =  4.160E+00 days        " i =  121, j =    1, k =    1,  f=point
  0.0000000E+00  0.0000000E+00  0.0000000E+00 -0.7250000E+01 -0.7250000E+01  0.3032642E+00  0.1000772E+00  0.6967358E+00  0.2299228E+00
  0.0000000E+00  0.0000000E+00  0.5000000E-01 -0.7200000E+01 -0.7250000E+01  0.3032642E+00  0.1000772E+00  0.6967358E+00  0.2299228E+00
  0.0000000E+00  0.0000000E+00  0.1000000E+00 -0.7150000E+01 -0.7250000E+01  0.3032642E+00  0.1000772E+00  0.6967358E+00  0.2299228E+00
  0.0000000E+00  0.0000000E+00  0.1500000E+00 -0.7100000E+01 -0.7250000E+01  0.3032642E+00  0.1000772E+00  0.6967358E+00  0.2299228E+00
  0.0000000E+00  0.0000000E+00  0.2000000E+00 -0.7050000E+01 -0.7250000E+01  0.3032642E+00  0.1000772E+00  0.6967358E+00  0.2299228E+00
  0.0000000E+00  0.0000000E+00  0.2500000E+00 -0.7000000E+01 -0.7250000E+01  0.3032642E+00  0.1000772E+00  0.6967358E+00  0.2299228E+00
  0.0000000E+00  0.0000000E+00  0.3000000E+00 -0.6950000E+01 -0.7250000E+01  0.3032642E+00  0.1000772E+00  0.6967358E+00  0.2299228E+00
  0.0000000E+00  0.0000000E+00  0.3500000E+00 -0.6900000E+01 -0.7250000E+01  0.3032642E+00  0.1000772E+00  0.6967358E+00  0.2299228E+00
  0.0000000E+00  0.0000000E+00  0.4000000E+00 -0.6850000E+01 -0.7250000E+01  0.3032642E+00  0.1000772E+00  0.6967358E+00  0.2299228E+00
  0.0000000E+00  0.0000000E+00  0.4500000E+00 -0.6800000E+01 -0.7250000E+01  0.3032642E+00  0.1000772E+00  0.6967358E+00  0.2299228E+00
  0.0000000E+00  0.0000000E+00  0.5000000E+00 -0.6750000E+01 -0.7250000E+01  0.3032642E+00  0.1000772E+00  0.6967358E+00  0.2299228E+00
  0.0000000E+00  0.0000000E+00  0.5500000E+00 -0.6700000E+01 -0.7250000E+01  0.3032642E+00  0.1000772E+00  0.6967358E+00  0.2299228E+00
  0.0000000E+00  0.0000000E+00  0.6000000E+00 -0.6650000E+01 -0.7250000E+01  0.3032642E+00  0.1000772E+00  0.6967358E+00  0.2299228E+00
  0.0000000E+00  0.0000000E+00  0.6500000E+00 -0.6600000E+01 -0.7250000E+01  0.3032642E+00  0.1000772E+00  0.6967358E+00  0.2299228E+00
  0.0000000E+00  0.0000000E+00  0.7000000E+00 -0.6550000E+01 -0.7250000E+01  0.3032642E+00  0.1000772E+00  0.6967358E+00  0.2299228E+00
  0.0000000E+00  0.0000000E+00  0.7500000E+00 -0.6500000E+01 -0.7250000E+01  0.3032642E+00  0.1000772E+00  0.6967358E+00  0.2299228E+00
  0.0000000E+00  0.0000000E+00  0.8000000E+00 -0.6450000E+01 -0.7250000E+01  0.3032642E+00  0.1000772E+00  0.6967358E+00  0.2299228E+00
  0.0000000E+00  0.0000000E+00  0.8500000E+00 -0.6400000E+01 -0.7250000E+01  0.3032642E+00  0.1000772E+00  0.6967358E+00  0.2299228E+00
  0.0000000E+00  0.0000000E+00  0.9000000E+00 -0.6350000E+01 -0.7250000E+01  0.3032642E+00  0.1000772E+00  0.6967358E+00  0.2299228E+00
  0.0000000E+00  0.0000000E+00  0.9500000E+00 -0.6300000E+01 -0.7250000E+01  0.3032642E+00  0.1000772E+00  0.6967358E+00  0.2299228E+00
  0.0000000E+00  0.0000000E+00  0.1000000E+01 -0.6250000E+01 -0.7250000E+01  0.3032642E+00  0.1000772E+00  0.6967358E+00  0.2299228E+00
  0.0000000E+00  0.0000000E+00  0.1050000E+01 -0.6200000E+01 -0.7250000E+01  0.3032642E+00  0.1000772E+00  0.6967358E+00  0.2299228E+00
  0.0000000E+00  0.0000000E+00  0.1100000E+01 -0.6150000E+01 -0.7250000E+01  0.3032642E+00  0.1000772E+00  0.6967358E+00  0.2299228E+00
  0.0000000E+00  0.0000000E+00  0.1150000E+01 -0.6100000E+01 -0.7250000E+01  0.3032642E+00  0.1000772E+00  0.6967358E+00  0.2299228E+00
  0.0000000E+00  0.0000000E+00  0.1200000E+01 -0.6050000E+01 -0.7250000E+01  0.3032642E+00  0.1000772E+00  0.6967358E+00  0.2299228E+00
  0.0000000E+00  0.0000000E+00  0.1250000E+01 -0.6000000E+01 -0.7250000E+01  0.3032642E+00  0.1000772E+00  0.6967358E+00  0.2299228E+00
  0.0000000E+00  0.0000000E+00  0.1300000E+01 -0.5950000E+01 -0.7250000E+01  0.3032642E+00  0.1000772E+00  0.6967358E+00  0.2299228E+00
  0.0000000E+00  0.0000000E+00  0.1350000E+01 -0.5900000E+01 -0.7250000E+01  0.3032642E+00  0.1000772E+00  0.6967358E+00  0.2299228E+00
  0.0000000E+00  0.0000000E+00  0.1400000E+01 -0.5850000E+01 -0.7250000E+01  0.3032642E+00  0.1000772E+00  0.6967358E+00  0.2299228E+00
  0.0000000E+00  0.0000000E+00  0.1450000E+01 -0.5800000E+01 -0.7250000E+01  0.3032642E+00  0.1000772E+00  0.6967358E+00  0.2299228E+00
  0.0000000E+00  0.0000000E+00  0.1500000E+01 -0.5750000E+01 -0.7250000E+01  0.3032642E+00  0.1000772E+00  0.6967358E+00  0.2299228E+00
  0.0000000E+00  0.0000000E+00  0.1550000E+01 -0.5700000E+01 -0.7250000E+01  0.3032642E+00  0.1000772E+00  0.6967358E+00  0.2299228E+00
  0.0000000E+00  0.0000000E+00  0.1600000E+01 -0.5650000E+01 -0.7250000E+01  0.3032642E+00  0.1000772E+00  0.6967358E+00  0.2299228E+00
  0.0000000E+00  0.0000000E+00  0.1650000E+01 -0.5600000E+01 -0.7250000E+01  0.3032642E+00  0.1000772E+00  0.6967358E+00  0.2299228E+00
  0.0000000E+00  0.0000000E+00  0.1700000E+01 -0.5550000E+01 -0.7250000E+01  0.3032642E+00  0.1000772E+00  0.6967358E+00  0.2299228E+00
  0.0000000E+00  0.0000000E+00  0.1750000E+01 -0.5500000E+01 -0.7250000E+01  0.3032642E+00  0.1000772E+00  0.6967358E+00  0.2299228E+00
  0.0000000E+00  0.0000000E+00  0.1800000E+01 -0.5450000E+01 -0.7250000E+01  0.3032642E+00  0.1000772E+00  0.6967358E+00  0.2299228E+00
  0.0000000E+00  0.0000000E+00  0.1850000E+01 -0.5400000E+01 -0.7250000E+01  0.3032642E+00  0.1000772E+00  0.6967358E+00  0.2299228E+00
  0.0000000E+00  0.0000000E+00  0.1900000E+01 -0.5350000E+01 -0.7250000E+01  0.3032642E+00  0.1000772E+00  0.6967358E+00  0.2299228E+00
  0.0000000E+00  0.0000000E+00  0.1950000E+01 -0.5299997E+01 -0.7249997E+01  0.3032642E+00  0.1000772E+00  0.6967358E+00  0.2299228E+00
  0.0000000E+00  0.0000000E+00  0.2000000E+01 -0.5249968E+01 -0.7249968E+01  0.3032648E+00  0.1000774E+00  0.6967352E+00  0.2299226E+00
  0.0000000E+00  0.0000000E+00  0.2050000E+01 -0.5199604E+01 -0.7249604E+01  0.3032723E+00  0.1000799E+00  0.6967277E+00  0.2299201E+00
  0.0000000E+00  0.0000000E+00  0.2100000E+01 -0.5145099E+01 -0.7245099E+01  0.3033650E+00  0.1001104E+00  0.6966350E+00  0.2298896E+00
  0.0000000E+00  0.0000000E+00  0.2150000E+01 -0.5040415E+01 -0.7190415E+01  0.3044965E+00  0.1004838E+00  0.6955035E+00  0.2295162E+00
  0.0000000E+00  0.0000000E+00  0.2200000E+01 -0.4463193E+01 -0.6663193E+01  0.3160840E+00  0.1043077E+00  0.6839160E+00  0.2256923E+00
  0.0000000E+00  0.0000000E+00  0.2250000E+01 -0.2501511E+01 -0.4751511E+01  0.3723898E+00  0.1228886E+00  0.6276102E+00  0.2071114E+00
  0.0000000E+00  0.0000000E+00  0.2300000E+01 -0.4356364E+00 -0.2735636E+01  0.4815579E+00  0.1589141E+00  0.5184421E+00  0.1710859E+00
  0.0000000E+00  0.0000000E+00  0.2350000E+01  0.7887079E+00 -0.1561292E+01  0.6101019E+00  0.2013336E+00  0.3898981E+00  0.1286664E+00
  0.0000000E+00  0.0000000E+00  0.2400000E+01  0.1454587E+01 -0.9454130E+00  0.7277718E+00  0.2401647E+00  0.2722282E+00  0.8983531E-01
  0.0000000E+00  0.0000000E+00  0.2450000E+01  0.1845085E+01 -0.6049146E+00  0.8202015E+00  0.2706665E+00  0.1797985E+00  0.5933352E-01
  0.0000000E+00  0.0000000E+00  0.2500000E+01  0.2098176E+01 -0.4018240E+00  0.8859078E+00  0.2923496E+00  0.1140922E+00  0.3765044E-01
  0.0000000E+00  0.0000000E+00  0.2550000E+01  0.2276973E+01 -0.2730266E+00  0.9296247E+00  0.3067761E+00  0.7037532E-01  0.2322385E-01
  0.0000000E+00  0.0000000E+00  0.2600000E+01  0.2412201E+01 -0.1877986E+00  0.9574743E+00  0.3159665E+00  0.4252575E-01  0.1403350E-01
  0.0000000E+00  0.0000000E+00  0.2650000E+01  0.2520104E+01 -0.1298957E+00  0.9747003E+00  0.3216511E+00  0.2529973E-01  0.8348911E-02
  0.0000000E+00  0.0000000E+00  0.2700000E+01  0.2609971E+01 -0.9002917E-01  0.9851206E+00  0.3250898E+00  0.1487945E-01  0.4910218E-02
  0.0000000E+00  0.0000000E+00  0.2750000E+01  0.2687489E+01 -0.6251064E-01  0.9913021E+00  0.3271297E+00  0.8697901E-02  0.2870307E-02
  0.0000000E+00  0.0000000E+00  0.2800000E+01  0.2756358E+01 -0.4364169E-01  0.9949004E+00  0.3283171E+00  0.5099589E-02  0.1682864E-02
  0.0000000E+00  0.0000000E+00  0.2850000E+01  0.2819110E+01 -0.3089005E-01  0.9969570E+00  0.3289958E+00  0.3042956E-02  0.1004175E-02
  0.0000000E+00  0.0000000E+00  0.2900000E+01  0.2877552E+01 -0.2244828E-01  0.9981141E+00  0.3293777E+00  0.1885876E-02  0.6223390E-03
  0.0000000E+00  0.0000000E+00  0.2950000E+01  0.2933007E+01 -0.1699326E-01  0.9987584E+00  0.3295903E+00  0.1241610E-02  0.4097313E-03
  0.0000000E+00  0.0000000E+00  0.3000000E+01  0.2986446E+01 -0.1355398E-01  0.9991161E+00  0.3297083E+00  0.8838741E-03  0.2916785E-03
  0.0000000E+00  0.0000000E+00  0.3050000E+01  0.3038567E+01 -0.1143294E-01  0.9993157E+00  0.3297742E+00  0.6843154E-03  0.2258241E-03
  0.0000000E+00  0.0000000E+00  0.3100000E+01  0.3089852E+01 -0.1014780E-01  0.9994280E+00  0.3298113E+00  0.5719570E-03  0.1887458E-03
  0.0000000E+00  0.0000000E+00  0.3150000E+01  0.3140621E+01 -0.9379070E-02  0.9994920E+00  0.3298323E+00  0.5080371E-03  0.1676523E-03
  0.0000000E+00  0.0000000E+00  0.3200000E+01  0.3191077E+01 -0.8923223E-02  0.9995287E+00  0.3298445E+00  0.4713465E-03  0.1555443E-03
  0.0000000E+00  0.0000000E+00  0.3250000E+01  0.3241346E+01 -0.8654411E-02  0.9995499E+00  0.3298515E+00  0.4501451E-03  0.1485479E-03
  0.0000000E+00  0.0000000E+00  0.3300000E+01  0.3291504E+01 -0.8496439E-02  0.9995622E+00  0.3298555E+00  0.4378388E-03  0.1444868E-03
  0.0000000E+00  0.0000000E+00  0.3350000E+01  0.3341596E+01 -0.8403796E-02  0.9995693E+00  0.3298579E+00  0.4306751E-03  0.1421228E-03
  0.0000000E+00  0.0000000E+00  0.3400000E+01  0.3391650E+01 -0.8349533E-02  0.9995735E+00  0.3298593E+00  0.4264975E-03  0.1407442E-03
  0.0000000E+00  0.0000000E+00  0.3450000E+01  0.3441682E+01 -0.8317773E-02  0.9995759E+00  0.3298601E+00  0.4240587E-03  0.1399394E-03
  0.0000000E+00  0.0000000E+00  0.3500000E+01  0.3491701E+01 -0.8299193E-02  0.9995774E+00  0.3298605E+00  0.4226341E-03  0.1394693E-03
  0.0000000E+00  0.0000000E+00  0.3550000E+01  0.3541712E+01 -0.8288325E-02  0.9995782E+00  0.3298608E+00  0.4218016E-03  0.1391945E-03
  0.0000000E+00  0.0000000E+00  0.3600000E+01  0.3591718E+01 -0.8281969E-02  0.9995787E+00  0.3298610E+00  0.4213150E-03  0.1390340E-03
  0.0000000E+00  0.0000000E+00  0.3650000E+01  0.3641722E+01 -0.8278253E-02  0.9995790E+00  0.3298611E+00  0.4210306E-03  0.1389401E-03
  0.0000000E+00  0.0000000E+00  0.3700000E+01  0.3691724E+01 -0.8276080E-02  0.9995791E+00  0.3298611E+00  0.4208643E-03  0.1388852E-03
  0.0000000E+00  0.0000000E+00  0.3750000E+01  0.3741725E+01 -0.8274809E-02  0.9995792E+00  0.3298611E+00  0.4207671E-03  0.1388531E-03
  0.0000000E+00  0.0000000E+00  0.3800000E+01  0.3791726E+01 -0.8274066E-02  0.9995793E+00  0.3298612E+00  0.4207102E-03  0.1388344E-03
  0.0000000E+00  0.0000000E+00  0.3850000E+01  0.3841726E+01 -0.8273632E-02  0.9995793E+00  0.3298612E+00  0.4206770E-03  0.1388234E-03
  0.0000000E+00  0.0000000E+00  0.3900000E+01  0.3891727E+01 -0.8273378E-02  0.9995793E+00  0.3298612E+00  0.4206575E-03  0.1388170E-03
  0.0000000E+00  0.0000000E+00  0.3950000E+01  0.3941727E+01 -0.8273229E-02  0.9995794E+00  0.3298612E+00  0.4206462E-03  0.1388132E-03
  0.0000000E+00  0.0000000E+00  0.4000000E+01  0.3991727E+01 -0.8273142E-02  0.9995794E+00  0.3298612E+00  0.4206395E-03  0.1388110E-03
  0.0000000E+00  0.0000000E+00  0.4050000E+01  0.4041727E+01 -0.8273091E-02  0.9995794E+00  0.3298612E+00  0.4206356E-03  0.1388098E-03
  0.0000000E+00  0.0000000E+00  0.4100000E+01  0.4091727E+01 -0.8273062E-02  0.9995794E+00  0.3298612E+00  0.4206334E-03  0.1388090E-03
  0.0000000E+00  0.0000000E+00  0.4150000E+01  0.4141727E+01 -0.8273044E-02  0.9995794E+00  0.3298612E+00  0.4206320E-03  0.1388086E-03
  0.0000000E+00  0.0000000E+00  0.4200000E+01  0.4191727E+01 -0.8273034E-02  0.9995794E+00  0.3298612E+00  0.4206313E-03  0.1388083E-03
  0.0000000E+00  0.0000000E+00  0.4250000E+01  0.4241727E+01 -0.8273028E-02  0.9995794E+00  0.3298612E+00  0.4206308E-03  0.1388082E-03
  0.0000000E+00  0.0000000E+00  0.4300000E+01  0.4291727E+01 -0.8273025E-02  0.9995794E+00  0.3298612E+00  0.4206305E-03  0.1388081E-03
  0.0000000E+00  0.0000000E+00  0.4350000E+01  0.4341727E+01 -0.8273023E-02  0.9995794E+00  0.3298612E+00  0.4206304E-03  0.1388080E-03
  0.0000000E+00  0.0000000E+00  0.4400000E+01  0.4391727E+01 -0.8273022E-02  0.9995794E+00  0.3298612E+00  0.4206303E-03  0.1388080E-03
  0.0000000E+00  0.0000000E+00  0.4450000E+01  0.4441727E+01 -0.8273021E-02  0.9995794E+00  0.3298612E+00  0.4206302E-03  0.1388080E-03
  0.0000000E+00  0.0000000E+00  0.4500000E+01  0.4491727E+01 -0.8273020E-02  0.9995794E+00  0.3298612E+00  0.4206302E-03  0.1388080E-03
  0.0000000E+00  0.0000000E+00  0.4550000E+01  0.4541727E+01 -0.8273020E-02  0.9995794E+00  0.3298612E+00  0.4206302E-03  0.1388080E-03
  0.0000000E+00  0.0000000E+00  0.4600000E+01  0.4591727E+01 -0.8273020E-02  0.9995794E+00  0.3298612E+00  0.4206302E-03  0.1388080E-03
  0.0000000E+00  0.0000000E+00  0.4650000E+01  0.4641727E+01 -0.8273020E-02  0.9995794E+00  0.3298612E+00  0.4206302E-03  0.1388080E-03
  0.0000000E+00  0.0000000E+00  0.4700000E+01  0.4691727E+01 -0.8273020E-02  0.9995794E+00  0.3298612E+00  0.4206302E-03  0.1388080E-03
  0.0000000E+00  0.0000000E+00  0.4750000E+01  0.4741727E+01 -0.8273020E-02  0.9995794E+00  0.3298612E+00  0.4206302E-03  0.1388080E-03
  0.0000000E+00  0.0000000E+00  0.4800000E+01  0.4791727E+01 -0.8273020E-02  0.9995794E+00  0.3298612E+00  0.4206302E-03  0.1388080E-03
  0.0000000E+00  0.0000000E+00  0.4850000E+01  0.4841727E+01 -0.8273020E-02  0.9995794E+00  0.3298612E+00  0.4206302E-03  0.1388080E-03
  0.0000000E+00  0.0000000E+00  0.4900000E+01  0.4891727E+01 -0.8273020E-02  0.9995794E+00  0.3298612E+00  0.4206302E-03  0.1388080E-03
  0.0000000E+00  0.0000000E+00  0.4950000E+01  0.4941727E+01 -0.8273020E-02  0.9995794E+00  0.3298612E+00  0.4206302E-03  0.1388080E-03
  0.0000000E+00  0.0000000E+00  0.5000000E+01  0.4991727E+01 -0.8273020E-02  0.9995794E+00  0.3298612E+00  0.4206302E-03  0.1388080E-03
  0.0000000E+00  0.0000000E+00  0.5050000E+01  0.5041727E+01 -0.8273020E-02  0.9995794E+00  0.3298612E+00  0.4206302E-03  0.1388080E-03
  0.0000000E+00  0.0000000E+00  0.5100000E+01  0.5091727E+01 -0.8273020E-02  0.9995794E+00  0.3298612E+00  0.4206302E-03  0.1388080E-03
  0.0000000E+00  0.0000000E+00  0.5150000E+01  0.5141727E+01 -0.8273020E-02  0.9995794E+00  0.3298612E+00  0.4206302E-03  0.1388080E-03
  0.0000000E+00  0.0000000E+00  0.5200000E+01  0.5191727E+01 -0.8273020E-02  0.9995794E+00  0.3298612E+00  0.4206302E-03  0.1388080E-03
  0.0000000E+00  0.0000000E+00  0.5250000E+01  0.5241727E+01 -0.8273020E-02  0.9995794E+00  0.3298612E+00  0.4206302E-03  0.1388080E-03
  0.0000000E+00  0.0000000E+00  0.5300000E+01  0.5291727E+01 -0.8273020E-02  0.9995794E+00  0.3298612E+00  0.4206302E-03  0.1388080E-03
  0.0000000E+00  0.0000000E+00  0.5350000E+01  0.5341727E+01 -0.8273020E-02  0.9995794E+00  0.3298612E+00  0.4206302E-03  0.1388080E-03
  0.0000000E+00  0.0000000E+00  0.5400000E+01  0.5391727E+01 -0.8273020E-02  0.9995794E+00  0.3298612E+00  0.4206302E-03  0.1388080E-03
  0.0000000E+00  0.0000000E+00  0.5450000E+01  0.5441727E+01 -0.8273020E-02  0.9995794E+00  0.3298612E+00  0.4206302E-03  0.1388080E-03
  0.0000000E+00  0.0000000E+00  0.5500000E+01  0.5491727E+01 -0.8273020E-02  0.9995794E+00  0.3298612E+00  0.4206302E-03  0.1388080E-03
  0.0000000E+00  0.0000000E+00  0.5550000E+01  0.5541727E+01 -0.8273020E-02  0.9995794E+00  0.3298612E+00  0.4206302E-03  0.1388080E-03
  0.0000000E+00  0.0000000E+00  0.5600000E+01  0.5591727E+01 -0.8273020E-02  0.9995794E+00  0.3298612E+00  0.4206302E-03  0.1388080E-03
  0.0000000E+00  0.0000000E+00  0.5650000E+01  0.5641727E+01 -0.8273020E-02  0.9995794E+00  0.3298612E+00  0.4206302E-03  0.1388080E-03
  0.0000000E+00  0.0000000E+00  0.5700000E+01  0.5691727E+01 -0.8273020E-02  0.9995794E+00  0.3298612E+00  0.4206302E-03  0.1388080E-03
  0.0000000E+00  0.0000000E+00  0.5750000E+01  0.5741727E+01 -0.8273020E-02  0.9995794E+00  0.3298612E+00  0.4206302E-03  0.1388080E-03
  0.0000000E+00  0.0000000E+00  0.5800000E+01  0.5791727E+01 -0.8273020E-02  0.9995794E+00  0.3298612E+00  0.4206302E-03  0.1388080E-03
  0.0000000E+00  0.0000000E+00  0.5850000E+01  0.5841727E+01 -0.8273020E-02  0.9995794E+00  0.3298612E+00  0.4206302E-03  0.1388080E-03
  0.0000000E+00  0.0000000E+00  0.5900000E+01  0.5891727E+01 -0.8273020E-02  0.9995794E+00  0.3298612E+00  0.4206302E-03  0.1388080E-03
  0.0000000E+00  0.0000000E+00  0.5950000E+01  0.5941727E+01 -0.8273020E-02  0.9995794E+00  0.3298612E+00  0.4206302E-03  0.1388080E-03
  0.0000000E+00  0.0000000E+00  0.6000000E+01  0.5991727E+01 -0.8273020E-02  0.9995794E+00  0.3298612E+00  0.4206302E-03  0.1388080E-03
