title = "dataset test"
variables = "x", "y", "z","cl-1"
zone t = "T_j, T =  2.090E+01 days", i =   102, j =    1, k =    1,  f=point
  0.0000000E+00  0.0000000E+00  0.0000000E+00  1.0000000E+00 
  1.0000000E+00  0.0000000E+00  0.0000000E+00  1.0000000E+00 
  5.0000000E+00  0.0000000E+00  0.0000000E+00  1.0000000E+00 
  9.0000000E+00  0.0000000E+00  0.0000000E+00  1.0000000E+00 
  1.3000000E+01  0.0000000E+00  0.0000000E+00  1.0000000E+00 
  1.7000000E+01  0.0000000E+00  0.0000000E+00  1.0000000E+00 
  2.1000000E+01  0.0000000E+00  0.0000000E+00  1.0000000E+00 
  2.5000000E+01  0.0000000E+00  0.0000000E+00  9.9900000E-01 
  2.9000000E+01  0.0000000E+00  0.0000000E+00  9.9900000E-01 
  3.3000000E+01  0.0000000E+00  0.0000000E+00  9.9900000E-01 
  3.7000000E+01  0.0000000E+00  0.0000000E+00  9.9800000E-01 
  4.1000000E+01  0.0000000E+00  0.0000000E+00  9.9700000E-01 
  4.5000000E+01  0.0000000E+00  0.0000000E+00  9.9600000E-01 
  4.9000000E+01  0.0000000E+00  0.0000000E+00  9.9500000E-01 
  5.3000000E+01  0.0000000E+00  0.0000000E+00  9.9300000E-01 
  5.7000000E+01  0.0000000E+00  0.0000000E+00  9.9000000E-01 
  6.1000000E+01  0.0000000E+00  0.0000000E+00  9.8700000E-01 
  6.5000000E+01  0.0000000E+00  0.0000000E+00  9.8200000E-01 
  6.9000000E+01  0.0000000E+00  0.0000000E+00  9.7600000E-01 
  7.3000000E+01  0.0000000E+00  0.0000000E+00  9.6900000E-01 
  7.7000000E+01  0.0000000E+00  0.0000000E+00  9.5900000E-01 
  8.1000000E+01  0.0000000E+00  0.0000000E+00  9.4800000E-01 
  8.5000000E+01  0.0000000E+00  0.0000000E+00  9.3300000E-01 
  8.9000000E+01  0.0000000E+00  0.0000000E+00  9.1600000E-01 
  9.3000000E+01  0.0000000E+00  0.0000000E+00  8.9500000E-01 
  9.7000000E+01  0.0000000E+00  0.0000000E+00  8.7100000E-01 
  1.0100000E+02  0.0000000E+00  0.0000000E+00  8.4300000E-01 
  1.0500000E+02  0.0000000E+00  0.0000000E+00  8.1100000E-01 
  1.0900000E+02  0.0000000E+00  0.0000000E+00  7.7500000E-01 
  1.1300000E+02  0.0000000E+00  0.0000000E+00  7.3500000E-01 
  1.1700000E+02  0.0000000E+00  0.0000000E+00  6.9100000E-01 
  1.2100000E+02  0.0000000E+00  0.0000000E+00  6.4400000E-01 
  1.2500000E+02  0.0000000E+00  0.0000000E+00  5.9400000E-01 
  1.2900000E+02  0.0000000E+00  0.0000000E+00  5.4200000E-01 
  1.3300000E+02  0.0000000E+00  0.0000000E+00  4.8900000E-01 
  1.3700000E+02  0.0000000E+00  0.0000000E+00  4.3600000E-01 
  1.4100000E+02  0.0000000E+00  0.0000000E+00  3.8400000E-01 
  1.4500000E+02  0.0000000E+00  0.0000000E+00  3.3300000E-01 
  1.4900000E+02  0.0000000E+00  0.0000000E+00  2.8500000E-01 
  1.5300000E+02  0.0000000E+00  0.0000000E+00  2.4000000E-01 
  1.5700000E+02  0.0000000E+00  0.0000000E+00  1.9900000E-01 
  1.6100000E+02  0.0000000E+00  0.0000000E+00  1.6200000E-01                                                         
  1.6500000E+02  0.0000000E+00  0.0000000E+00  1.3000000E-01 
  1.6900000E+02  0.0000000E+00  0.0000000E+00  1.0300000E-01 
  1.7300000E+02  0.0000000E+00  0.0000000E+00  7.9000000E-02 
  1.7700000E+02  0.0000000E+00  0.0000000E+00  6.0000000E-02 
  1.8100000E+02  0.0000000E+00  0.0000000E+00  4.5000000E-02 
  1.8500000E+02  0.0000000E+00  0.0000000E+00  3.3000000E-02 
  1.8900000E+02  0.0000000E+00  0.0000000E+00  2.3000000E-02 
  1.9300000E+02  0.0000000E+00  0.0000000E+00  1.6000000E-02 
  1.9700000E+02  0.0000000E+00  0.0000000E+00  1.1000000E-02 
  2.0100000E+02  0.0000000E+00  0.0000000E+00  7.0000000E-03 
  2.0500000E+02  0.0000000E+00  0.0000000E+00  5.0000000E-03 
  2.0900000E+02  0.0000000E+00  0.0000000E+00  3.0000000E-03 
  2.1300000E+02  0.0000000E+00  0.0000000E+00  2.0000000E-03 
  2.1700000E+02  0.0000000E+00  0.0000000E+00  1.0000000E-03 
  2.2100000E+02  0.0000000E+00  0.0000000E+00  1.0000000E-03 
  2.2500000E+02  0.0000000E+00  0.0000000E+00  0.0000000E+00 
  2.2900000E+02  0.0000000E+00  0.0000000E+00  0.0000000E+00 
  2.3300000E+02  0.0000000E+00  0.0000000E+00  0.0000000E+00 
  2.3700000E+02  0.0000000E+00  0.0000000E+00  0.0000000E+00 
  2.4100000E+02  0.0000000E+00  0.0000000E+00  0.0000000E+00 
  2.4500000E+02  0.0000000E+00  0.0000000E+00  0.0000000E+00 
  2.4900000E+02  0.0000000E+00  0.0000000E+00  0.0000000E+00 
  2.5300000E+02  0.0000000E+00  0.0000000E+00  0.0000000E+00 
  2.5700000E+02  0.0000000E+00  0.0000000E+00  0.0000000E+00 
  2.6100000E+02  0.0000000E+00  0.0000000E+00  0.0000000E+00 
  2.6500000E+02  0.0000000E+00  0.0000000E+00  0.0000000E+00 
  2.6900000E+02  0.0000000E+00  0.0000000E+00  0.0000000E+00 
  2.7300000E+02  0.0000000E+00  0.0000000E+00  0.0000000E+00 
  2.7700000E+02  0.0000000E+00  0.0000000E+00  0.0000000E+00 
  2.8100000E+02  0.0000000E+00  0.0000000E+00  0.0000000E+00 
  2.8500000E+02  0.0000000E+00  0.0000000E+00  0.0000000E+00 
  2.8900000E+02  0.0000000E+00  0.0000000E+00  0.0000000E+00 
  2.9300000E+02  0.0000000E+00  0.0000000E+00  0.0000000E+00 
  2.9700000E+02  0.0000000E+00  0.0000000E+00  0.0000000E+00 
  3.0100000E+02  0.0000000E+00  0.0000000E+00  0.0000000E+00 
  3.0500000E+02  0.0000000E+00  0.0000000E+00  0.0000000E+00 
  3.0900000E+02  0.0000000E+00  0.0000000E+00  0.0000000E+00 
  3.1300000E+02  0.0000000E+00  0.0000000E+00  0.0000000E+00 
  3.1700000E+02  0.0000000E+00  0.0000000E+00  0.0000000E+00 
  3.2100000E+02  0.0000000E+00  0.0000000E+00  0.0000000E+00 
  3.2500000E+02  0.0000000E+00  0.0000000E+00  0.0000000E+00 
  3.2900000E+02  0.0000000E+00  0.0000000E+00  0.0000000E+00 
  3.3300000E+02  0.0000000E+00  0.0000000E+00  0.0000000E+00 
  3.3700000E+02  0.0000000E+00  0.0000000E+00  0.0000000E+00 
  3.4100000E+02  0.0000000E+00  0.0000000E+00  0.0000000E+00 
  3.4500000E+02  0.0000000E+00  0.0000000E+00  0.0000000E+00 
  3.4900000E+02  0.0000000E+00  0.0000000E+00  -1.0000000E-03
  3.5300000E+02  0.0000000E+00  0.0000000E+00  0.0000000E+00 
  3.5700000E+02  0.0000000E+00  0.0000000E+00  0.0000000E+00 
  3.6100000E+02  0.0000000E+00  0.0000000E+00  0.0000000E+00 
  3.6500000E+02  0.0000000E+00  0.0000000E+00  0.0000000E+00 
  3.6900000E+02  0.0000000E+00  0.0000000E+00  0.0000000E+00 
  3.7300000E+02  0.0000000E+00  0.0000000E+00  0.0000000E+00 
  3.7700000E+02  0.0000000E+00  0.0000000E+00  0.0000000E+00 
  3.8100000E+02  0.0000000E+00  0.0000000E+00  0.0000000E+00 
  3.8500000E+02  0.0000000E+00  0.0000000E+00  0.0000000E+00 
  3.8900000E+02  0.0000000E+00  0.0000000E+00  0.0000000E+00 
  3.9300000E+02  0.0000000E+00  0.0000000E+00  1.0000000E-03 
  3.9700000E+02  0.0000000E+00  0.0000000E+00  0.0000000E+00 
  4.0000000E+02  0.0000000E+00  0.0000000E+00  0.0000000E+00 
                                                             