title = "dataset disp-rc"
variables = "x", "y", "z", "K_xx", "K_yy", "K_zz"
zone t = "K - initial [m/s]", i = 1000, j =    1, k =    1,  f=point
  0.0000000E+00  0.0000000E+00  0.0000000E+00  0.1000000E-03  0.0000000E+00  0.0000000E+00
  0.1001001E+01  0.0000000E+00  0.0000000E+00  0.1000000E-03  0.0000000E+00  0.0000000E+00
  0.2002002E+01  0.0000000E+00  0.0000000E+00  0.1000000E-03  0.0000000E+00  0.0000000E+00
  0.3003003E+01  0.0000000E+00  0.0000000E+00  0.1000000E-03  0.0000000E+00  0.0000000E+00
  0.4004004E+01  0.0000000E+00  0.0000000E+00  0.1000000E-03  0.0000000E+00  0.0000000E+00
  0.5005005E+01  0.0000000E+00  0.0000000E+00  0.1000000E-03  0.0000000E+00  0.0000000E+00
  0.6006006E+01  0.0000000E+00  0.0000000E+00  0.1000000E-03  0.0000000E+00  0.0000000E+00
  0.7007007E+01  0.0000000E+00  0.0000000E+00  0.1000000E-03  0.0000000E+00  0.0000000E+00
  0.8008008E+01  0.0000000E+00  0.0000000E+00  0.1000000E-03  0.0000000E+00  0.0000000E+00
  0.9009009E+01  0.0000000E+00  0.0000000E+00  0.1000000E-03  0.0000000E+00  0.0000000E+00
  0.1001001E+02  0.0000000E+00  0.0000000E+00  0.1000000E-03  0.0000000E+00  0.0000000E+00
  0.1101101E+02  0.0000000E+00  0.0000000E+00  0.1000000E-03  0.0000000E+00  0.0000000E+00
  0.1201201E+02  0.0000000E+00  0.0000000E+00  0.1000000E-03  0.0000000E+00  0.0000000E+00
  0.1301301E+02  0.0000000E+00  0.0000000E+00  0.1000000E-03  0.0000000E+00  0.0000000E+00
  0.1401401E+02  0.0000000E+00  0.0000000E+00  0.1000000E-03  0.0000000E+00  0.0000000E+00
  0.1501502E+02  0.0000000E+00  0.0000000E+00  0.1000000E-03  0.0000000E+00  0.0000000E+00
  0.1601602E+02  0.0000000E+00  0.0000000E+00  0.1000000E-03  0.0000000E+00  0.0000000E+00
  0.1701702E+02  0.0000000E+00  0.0000000E+00  0.1000000E-03  0.0000000E+00  0.0000000E+00
  0.1801802E+02  0.0000000E+00  0.0000000E+00  0.1000000E-03  0.0000000E+00  0.0000000E+00
  0.1901902E+02  0.0000000E+00  0.0000000E+00  0.1000000E-03  0.0000000E+00  0.0000000E+00
  0.2002002E+02  0.0000000E+00  0.0000000E+00  0.1000000E-03  0.0000000E+00  0.0000000E+00
  0.2102102E+02  0.0000000E+00  0.0000000E+00  0.1000000E-03  0.0000000E+00  0.0000000E+00
  0.2202202E+02  0.0000000E+00  0.0000000E+00  0.1000000E-03  0.0000000E+00  0.0000000E+00
  0.2302302E+02  0.0000000E+00  0.0000000E+00  0.1000000E-03  0.0000000E+00  0.0000000E+00
  0.2402402E+02  0.0000000E+00  0.0000000E+00  0.1000000E-03  0.0000000E+00  0.0000000E+00
  0.2502503E+02  0.0000000E+00  0.0000000E+00  0.1000000E-03  0.0000000E+00  0.0000000E+00
  0.2602603E+02  0.0000000E+00  0.0000000E+00  0.1000000E-03  0.0000000E+00  0.0000000E+00
  0.2702703E+02  0.0000000E+00  0.0000000E+00  0.1000000E-03  0.0000000E+00  0.0000000E+00
  0.2802803E+02  0.0000000E+00  0.0000000E+00  0.1000000E-03  0.0000000E+00  0.0000000E+00
  0.2902903E+02  0.0000000E+00  0.0000000E+00  0.1000000E-03  0.0000000E+00  0.0000000E+00
  0.3003003E+02  0.0000000E+00  0.0000000E+00  0.1000000E-03  0.0000000E+00  0.0000000E+00
  0.3103103E+02  0.0000000E+00  0.0000000E+00  0.1000000E-03  0.0000000E+00  0.0000000E+00
  0.3203203E+02  0.0000000E+00  0.0000000E+00  0.1000000E-03  0.0000000E+00  0.0000000E+00
  0.3303303E+02  0.0000000E+00  0.0000000E+00  0.1000000E-03  0.0000000E+00  0.0000000E+00
  0.3403403E+02  0.0000000E+00  0.0000000E+00  0.1000000E-03  0.0000000E+00  0.0000000E+00
  0.3503504E+02  0.0000000E+00  0.0000000E+00  0.1000000E-03  0.0000000E+00  0.0000000E+00
  0.3603604E+02  0.0000000E+00  0.0000000E+00  0.1000000E-03  0.0000000E+00  0.0000000E+00
  0.3703704E+02  0.0000000E+00  0.0000000E+00  0.1000000E-03  0.0000000E+00  0.0000000E+00
  0.3803804E+02  0.0000000E+00  0.0000000E+00  0.1000000E-03  0.0000000E+00  0.0000000E+00
  0.3903904E+02  0.0000000E+00  0.0000000E+00  0.1000000E-03  0.0000000E+00  0.0000000E+00
  0.4004004E+02  0.0000000E+00  0.0000000E+00  0.1000000E-03  0.0000000E+00  0.0000000E+00
  0.4104104E+02  0.0000000E+00  0.0000000E+00  0.1000000E-03  0.0000000E+00  0.0000000E+00
  0.4204204E+02  0.0000000E+00  0.0000000E+00  0.1000000E-03  0.0000000E+00  0.0000000E+00
  0.4304304E+02  0.0000000E+00  0.0000000E+00  0.1000000E-03  0.0000000E+00  0.0000000E+00
  0.4404404E+02  0.0000000E+00  0.0000000E+00  0.1000000E-03  0.0000000E+00  0.0000000E+00
  0.4504505E+02  0.0000000E+00  0.0000000E+00  0.1000000E-03  0.0000000E+00  0.0000000E+00
  0.4604605E+02  0.0000000E+00  0.0000000E+00  0.1000000E-03  0.0000000E+00  0.0000000E+00
  0.4704705E+02  0.0000000E+00  0.0000000E+00  0.1000000E-03  0.0000000E+00  0.0000000E+00
  0.4804805E+02  0.0000000E+00  0.0000000E+00  0.1000000E-03  0.0000000E+00  0.0000000E+00
  0.4904905E+02  0.0000000E+00  0.0000000E+00  0.1000000E-03  0.0000000E+00  0.0000000E+00
  0.5005005E+02  0.0000000E+00  0.0000000E+00  0.1000000E-03  0.0000000E+00  0.0000000E+00
  0.5105105E+02  0.0000000E+00  0.0000000E+00  0.1000000E-03  0.0000000E+00  0.0000000E+00
  0.5205205E+02  0.0000000E+00  0.0000000E+00  0.1000000E-03  0.0000000E+00  0.0000000E+00
  0.5305305E+02  0.0000000E+00  0.0000000E+00  0.1000000E-03  0.0000000E+00  0.0000000E+00
  0.5405405E+02  0.0000000E+00  0.0000000E+00  0.1000000E-03  0.0000000E+00  0.0000000E+00
  0.5505506E+02  0.0000000E+00  0.0000000E+00  0.1000000E-03  0.0000000E+00  0.0000000E+00
  0.5605606E+02  0.0000000E+00  0.0000000E+00  0.1000000E-03  0.0000000E+00  0.0000000E+00
  0.5705706E+02  0.0000000E+00  0.0000000E+00  0.1000000E-03  0.0000000E+00  0.0000000E+00
  0.5805806E+02  0.0000000E+00  0.0000000E+00  0.1000000E-03  0.0000000E+00  0.0000000E+00
  0.5905906E+02  0.0000000E+00  0.0000000E+00  0.1000000E-03  0.0000000E+00  0.0000000E+00
  0.6006006E+02  0.0000000E+00  0.0000000E+00  0.1000000E-03  0.0000000E+00  0.0000000E+00
  0.6106106E+02  0.0000000E+00  0.0000000E+00  0.1000000E-03  0.0000000E+00  0.0000000E+00
  0.6206206E+02  0.0000000E+00  0.0000000E+00  0.1000000E-03  0.0000000E+00  0.0000000E+00
  0.6306306E+02  0.0000000E+00  0.0000000E+00  0.1000000E-03  0.0000000E+00  0.0000000E+00
  0.6406406E+02  0.0000000E+00  0.0000000E+00  0.1000000E-03  0.0000000E+00  0.0000000E+00
  0.6506507E+02  0.0000000E+00  0.0000000E+00  0.1000000E-03  0.0000000E+00  0.0000000E+00
  0.6606607E+02  0.0000000E+00  0.0000000E+00  0.1000000E-03  0.0000000E+00  0.0000000E+00
  0.6706707E+02  0.0000000E+00  0.0000000E+00  0.1000000E-03  0.0000000E+00  0.0000000E+00
  0.6806807E+02  0.0000000E+00  0.0000000E+00  0.1000000E-03  0.0000000E+00  0.0000000E+00
  0.6906907E+02  0.0000000E+00  0.0000000E+00  0.1000000E-03  0.0000000E+00  0.0000000E+00
  0.7007007E+02  0.0000000E+00  0.0000000E+00  0.1000000E-03  0.0000000E+00  0.0000000E+00
  0.7107107E+02  0.0000000E+00  0.0000000E+00  0.1000000E-03  0.0000000E+00  0.0000000E+00
  0.7207207E+02  0.0000000E+00  0.0000000E+00  0.1000000E-03  0.0000000E+00  0.0000000E+00
  0.7307307E+02  0.0000000E+00  0.0000000E+00  0.1000000E-03  0.0000000E+00  0.0000000E+00
  0.7407407E+02  0.0000000E+00  0.0000000E+00  0.1000000E-03  0.0000000E+00  0.0000000E+00
  0.7507508E+02  0.0000000E+00  0.0000000E+00  0.1000000E-03  0.0000000E+00  0.0000000E+00
  0.7607608E+02  0.0000000E+00  0.0000000E+00  0.1000000E-03  0.0000000E+00  0.0000000E+00
  0.7707708E+02  0.0000000E+00  0.0000000E+00  0.1000000E-03  0.0000000E+00  0.0000000E+00
  0.7807808E+02  0.0000000E+00  0.0000000E+00  0.1000000E-03  0.0000000E+00  0.0000000E+00
  0.7907908E+02  0.0000000E+00  0.0000000E+00  0.1000000E-03  0.0000000E+00  0.0000000E+00
  0.8008008E+02  0.0000000E+00  0.0000000E+00  0.1000000E-03  0.0000000E+00  0.0000000E+00
  0.8108108E+02  0.0000000E+00  0.0000000E+00  0.1000000E-03  0.0000000E+00  0.0000000E+00
  0.8208208E+02  0.0000000E+00  0.0000000E+00  0.1000000E-03  0.0000000E+00  0.0000000E+00
  0.8308308E+02  0.0000000E+00  0.0000000E+00  0.1000000E-03  0.0000000E+00  0.0000000E+00
  0.8408408E+02  0.0000000E+00  0.0000000E+00  0.1000000E-03  0.0000000E+00  0.0000000E+00
  0.8508509E+02  0.0000000E+00  0.0000000E+00  0.1000000E-03  0.0000000E+00  0.0000000E+00
  0.8608609E+02  0.0000000E+00  0.0000000E+00  0.1000000E-03  0.0000000E+00  0.0000000E+00
  0.8708709E+02  0.0000000E+00  0.0000000E+00  0.1000000E-03  0.0000000E+00  0.0000000E+00
  0.8808809E+02  0.0000000E+00  0.0000000E+00  0.1000000E-03  0.0000000E+00  0.0000000E+00
  0.8908909E+02  0.0000000E+00  0.0000000E+00  0.1000000E-03  0.0000000E+00  0.0000000E+00
  0.9009009E+02  0.0000000E+00  0.0000000E+00  0.1000000E-03  0.0000000E+00  0.0000000E+00
  0.9109109E+02  0.0000000E+00  0.0000000E+00  0.1000000E-03  0.0000000E+00  0.0000000E+00
  0.9209209E+02  0.0000000E+00  0.0000000E+00  0.1000000E-03  0.0000000E+00  0.0000000E+00
  0.9309309E+02  0.0000000E+00  0.0000000E+00  0.1000000E-03  0.0000000E+00  0.0000000E+00
  0.9409409E+02  0.0000000E+00  0.0000000E+00  0.1000000E-03  0.0000000E+00  0.0000000E+00
  0.9509510E+02  0.0000000E+00  0.0000000E+00  0.1000000E-03  0.0000000E+00  0.0000000E+00
  0.9609610E+02  0.0000000E+00  0.0000000E+00  0.1000000E-03  0.0000000E+00  0.0000000E+00
  0.9709710E+02  0.0000000E+00  0.0000000E+00  0.1000000E-03  0.0000000E+00  0.0000000E+00
  0.9809810E+02  0.0000000E+00  0.0000000E+00  0.1000000E-03  0.0000000E+00  0.0000000E+00
  0.9909910E+02  0.0000000E+00  0.0000000E+00  0.1000000E-03  0.0000000E+00  0.0000000E+00
  0.1001001E+03  0.0000000E+00  0.0000000E+00  0.1000000E-03  0.0000000E+00  0.0000000E+00
  0.1011011E+03  0.0000000E+00  0.0000000E+00  0.1000000E-03  0.0000000E+00  0.0000000E+00
  0.1021021E+03  0.0000000E+00  0.0000000E+00  0.1000000E-03  0.0000000E+00  0.0000000E+00
  0.1031031E+03  0.0000000E+00  0.0000000E+00  0.1000000E-03  0.0000000E+00  0.0000000E+00
  0.1041041E+03  0.0000000E+00  0.0000000E+00  0.1000000E-03  0.0000000E+00  0.0000000E+00
  0.1051051E+03  0.0000000E+00  0.0000000E+00  0.1000000E-03  0.0000000E+00  0.0000000E+00
  0.1061061E+03  0.0000000E+00  0.0000000E+00  0.1000000E-03  0.0000000E+00  0.0000000E+00
  0.1071071E+03  0.0000000E+00  0.0000000E+00  0.1000000E-03  0.0000000E+00  0.0000000E+00
  0.1081081E+03  0.0000000E+00  0.0000000E+00  0.1000000E-03  0.0000000E+00  0.0000000E+00
  0.1091091E+03  0.0000000E+00  0.0000000E+00  0.1000000E-03  0.0000000E+00  0.0000000E+00
  0.1101101E+03  0.0000000E+00  0.0000000E+00  0.1000000E-03  0.0000000E+00  0.0000000E+00
  0.1111111E+03  0.0000000E+00  0.0000000E+00  0.1000000E-03  0.0000000E+00  0.0000000E+00
  0.1121121E+03  0.0000000E+00  0.0000000E+00  0.1000000E-03  0.0000000E+00  0.0000000E+00
  0.1131131E+03  0.0000000E+00  0.0000000E+00  0.1000000E-03  0.0000000E+00  0.0000000E+00
  0.1141141E+03  0.0000000E+00  0.0000000E+00  0.1000000E-03  0.0000000E+00  0.0000000E+00
  0.1151151E+03  0.0000000E+00  0.0000000E+00  0.1000000E-03  0.0000000E+00  0.0000000E+00
  0.1161161E+03  0.0000000E+00  0.0000000E+00  0.1000000E-03  0.0000000E+00  0.0000000E+00
  0.1171171E+03  0.0000000E+00  0.0000000E+00  0.1000000E-03  0.0000000E+00  0.0000000E+00
  0.1181181E+03  0.0000000E+00  0.0000000E+00  0.1000000E-03  0.0000000E+00  0.0000000E+00
  0.1191191E+03  0.0000000E+00  0.0000000E+00  0.1000000E-03  0.0000000E+00  0.0000000E+00
  0.1201201E+03  0.0000000E+00  0.0000000E+00  0.1000000E-03  0.0000000E+00  0.0000000E+00
  0.1211211E+03  0.0000000E+00  0.0000000E+00  0.1000000E-03  0.0000000E+00  0.0000000E+00
  0.1221221E+03  0.0000000E+00  0.0000000E+00  0.1000000E-03  0.0000000E+00  0.0000000E+00
  0.1231231E+03  0.0000000E+00  0.0000000E+00  0.1000000E-03  0.0000000E+00  0.0000000E+00
  0.1241241E+03  0.0000000E+00  0.0000000E+00  0.1000000E-03  0.0000000E+00  0.0000000E+00
  0.1251251E+03  0.0000000E+00  0.0000000E+00  0.1000000E-03  0.0000000E+00  0.0000000E+00
  0.1261261E+03  0.0000000E+00  0.0000000E+00  0.1000000E-03  0.0000000E+00  0.0000000E+00
  0.1271271E+03  0.0000000E+00  0.0000000E+00  0.1000000E-03  0.0000000E+00  0.0000000E+00
  0.1281281E+03  0.0000000E+00  0.0000000E+00  0.1000000E-03  0.0000000E+00  0.0000000E+00
  0.1291291E+03  0.0000000E+00  0.0000000E+00  0.1000000E-03  0.0000000E+00  0.0000000E+00
  0.1301301E+03  0.0000000E+00  0.0000000E+00  0.1000000E-03  0.0000000E+00  0.0000000E+00
  0.1311311E+03  0.0000000E+00  0.0000000E+00  0.1000000E-03  0.0000000E+00  0.0000000E+00
  0.1321321E+03  0.0000000E+00  0.0000000E+00  0.1000000E-03  0.0000000E+00  0.0000000E+00
  0.1331331E+03  0.0000000E+00  0.0000000E+00  0.1000000E-03  0.0000000E+00  0.0000000E+00
  0.1341341E+03  0.0000000E+00  0.0000000E+00  0.1000000E-03  0.0000000E+00  0.0000000E+00
  0.1351351E+03  0.0000000E+00  0.0000000E+00  0.1000000E-03  0.0000000E+00  0.0000000E+00
  0.1361361E+03  0.0000000E+00  0.0000000E+00  0.1000000E-03  0.0000000E+00  0.0000000E+00
  0.1371371E+03  0.0000000E+00  0.0000000E+00  0.1000000E-03  0.0000000E+00  0.0000000E+00
  0.1381381E+03  0.0000000E+00  0.0000000E+00  0.1000000E-03  0.0000000E+00  0.0000000E+00
  0.1391391E+03  0.0000000E+00  0.0000000E+00  0.1000000E-03  0.0000000E+00  0.0000000E+00
  0.1401401E+03  0.0000000E+00  0.0000000E+00  0.1000000E-03  0.0000000E+00  0.0000000E+00
  0.1411411E+03  0.0000000E+00  0.0000000E+00  0.1000000E-03  0.0000000E+00  0.0000000E+00
  0.1421421E+03  0.0000000E+00  0.0000000E+00  0.1000000E-03  0.0000000E+00  0.0000000E+00
  0.1431431E+03  0.0000000E+00  0.0000000E+00  0.1000000E-03  0.0000000E+00  0.0000000E+00
  0.1441441E+03  0.0000000E+00  0.0000000E+00  0.1000000E-03  0.0000000E+00  0.0000000E+00
  0.1451451E+03  0.0000000E+00  0.0000000E+00  0.1000000E-03  0.0000000E+00  0.0000000E+00
  0.1461461E+03  0.0000000E+00  0.0000000E+00  0.1000000E-03  0.0000000E+00  0.0000000E+00
  0.1471471E+03  0.0000000E+00  0.0000000E+00  0.1000000E-03  0.0000000E+00  0.0000000E+00
  0.1481481E+03  0.0000000E+00  0.0000000E+00  0.1000000E-03  0.0000000E+00  0.0000000E+00
  0.1491491E+03  0.0000000E+00  0.0000000E+00  0.1000000E-03  0.0000000E+00  0.0000000E+00
  0.1501502E+03  0.0000000E+00  0.0000000E+00  0.1000000E-03  0.0000000E+00  0.0000000E+00
  0.1511512E+03  0.0000000E+00  0.0000000E+00  0.1000000E-03  0.0000000E+00  0.0000000E+00
  0.1521522E+03  0.0000000E+00  0.0000000E+00  0.1000000E-03  0.0000000E+00  0.0000000E+00
  0.1531532E+03  0.0000000E+00  0.0000000E+00  0.1000000E-03  0.0000000E+00  0.0000000E+00
  0.1541542E+03  0.0000000E+00  0.0000000E+00  0.1000000E-03  0.0000000E+00  0.0000000E+00
  0.1551552E+03  0.0000000E+00  0.0000000E+00  0.1000000E-03  0.0000000E+00  0.0000000E+00
  0.1561562E+03  0.0000000E+00  0.0000000E+00  0.1000000E-03  0.0000000E+00  0.0000000E+00
  0.1571572E+03  0.0000000E+00  0.0000000E+00  0.1000000E-03  0.0000000E+00  0.0000000E+00
  0.1581582E+03  0.0000000E+00  0.0000000E+00  0.1000000E-03  0.0000000E+00  0.0000000E+00
  0.1591592E+03  0.0000000E+00  0.0000000E+00  0.1000000E-03  0.0000000E+00  0.0000000E+00
  0.1601602E+03  0.0000000E+00  0.0000000E+00  0.1000000E-03  0.0000000E+00  0.0000000E+00
  0.1611612E+03  0.0000000E+00  0.0000000E+00  0.1000000E-03  0.0000000E+00  0.0000000E+00
  0.1621622E+03  0.0000000E+00  0.0000000E+00  0.1000000E-03  0.0000000E+00  0.0000000E+00
  0.1631632E+03  0.0000000E+00  0.0000000E+00  0.1000000E-03  0.0000000E+00  0.0000000E+00
  0.1641642E+03  0.0000000E+00  0.0000000E+00  0.1000000E-03  0.0000000E+00  0.0000000E+00
  0.1651652E+03  0.0000000E+00  0.0000000E+00  0.1000000E-03  0.0000000E+00  0.0000000E+00
  0.1661662E+03  0.0000000E+00  0.0000000E+00  0.1000000E-03  0.0000000E+00  0.0000000E+00
  0.1671672E+03  0.0000000E+00  0.0000000E+00  0.1000000E-03  0.0000000E+00  0.0000000E+00
  0.1681682E+03  0.0000000E+00  0.0000000E+00  0.1000000E-03  0.0000000E+00  0.0000000E+00
  0.1691692E+03  0.0000000E+00  0.0000000E+00  0.1000000E-03  0.0000000E+00  0.0000000E+00
  0.1701702E+03  0.0000000E+00  0.0000000E+00  0.1000000E-03  0.0000000E+00  0.0000000E+00
  0.1711712E+03  0.0000000E+00  0.0000000E+00  0.1000000E-03  0.0000000E+00  0.0000000E+00
  0.1721722E+03  0.0000000E+00  0.0000000E+00  0.1000000E-03  0.0000000E+00  0.0000000E+00
  0.1731732E+03  0.0000000E+00  0.0000000E+00  0.1000000E-03  0.0000000E+00  0.0000000E+00
  0.1741742E+03  0.0000000E+00  0.0000000E+00  0.1000000E-03  0.0000000E+00  0.0000000E+00
  0.1751752E+03  0.0000000E+00  0.0000000E+00  0.1000000E-03  0.0000000E+00  0.0000000E+00
  0.1761762E+03  0.0000000E+00  0.0000000E+00  0.1000000E-03  0.0000000E+00  0.0000000E+00
  0.1771772E+03  0.0000000E+00  0.0000000E+00  0.1000000E-03  0.0000000E+00  0.0000000E+00
  0.1781782E+03  0.0000000E+00  0.0000000E+00  0.1000000E-03  0.0000000E+00  0.0000000E+00
  0.1791792E+03  0.0000000E+00  0.0000000E+00  0.1000000E-03  0.0000000E+00  0.0000000E+00
  0.1801802E+03  0.0000000E+00  0.0000000E+00  0.1000000E-03  0.0000000E+00  0.0000000E+00
  0.1811812E+03  0.0000000E+00  0.0000000E+00  0.1000000E-03  0.0000000E+00  0.0000000E+00
  0.1821822E+03  0.0000000E+00  0.0000000E+00  0.1000000E-03  0.0000000E+00  0.0000000E+00
  0.1831832E+03  0.0000000E+00  0.0000000E+00  0.1000000E-03  0.0000000E+00  0.0000000E+00
  0.1841842E+03  0.0000000E+00  0.0000000E+00  0.1000000E-03  0.0000000E+00  0.0000000E+00
  0.1851852E+03  0.0000000E+00  0.0000000E+00  0.1000000E-03  0.0000000E+00  0.0000000E+00
  0.1861862E+03  0.0000000E+00  0.0000000E+00  0.1000000E-03  0.0000000E+00  0.0000000E+00
  0.1871872E+03  0.0000000E+00  0.0000000E+00  0.1000000E-03  0.0000000E+00  0.0000000E+00
  0.1881882E+03  0.0000000E+00  0.0000000E+00  0.1000000E-03  0.0000000E+00  0.0000000E+00
  0.1891892E+03  0.0000000E+00  0.0000000E+00  0.1000000E-03  0.0000000E+00  0.0000000E+00
  0.1901902E+03  0.0000000E+00  0.0000000E+00  0.1000000E-03  0.0000000E+00  0.0000000E+00
  0.1911912E+03  0.0000000E+00  0.0000000E+00  0.1000000E-03  0.0000000E+00  0.0000000E+00
  0.1921922E+03  0.0000000E+00  0.0000000E+00  0.1000000E-03  0.0000000E+00  0.0000000E+00
  0.1931932E+03  0.0000000E+00  0.0000000E+00  0.1000000E-03  0.0000000E+00  0.0000000E+00
  0.1941942E+03  0.0000000E+00  0.0000000E+00  0.1000000E-03  0.0000000E+00  0.0000000E+00
  0.1951952E+03  0.0000000E+00  0.0000000E+00  0.1000000E-03  0.0000000E+00  0.0000000E+00
  0.1961962E+03  0.0000000E+00  0.0000000E+00  0.1000000E-03  0.0000000E+00  0.0000000E+00
  0.1971972E+03  0.0000000E+00  0.0000000E+00  0.1000000E-03  0.0000000E+00  0.0000000E+00
  0.1981982E+03  0.0000000E+00  0.0000000E+00  0.1000000E-03  0.0000000E+00  0.0000000E+00
  0.1991992E+03  0.0000000E+00  0.0000000E+00  0.1000000E-03  0.0000000E+00  0.0000000E+00
  0.2002002E+03  0.0000000E+00  0.0000000E+00  0.1000000E-03  0.0000000E+00  0.0000000E+00
  0.2012012E+03  0.0000000E+00  0.0000000E+00  0.1000000E-03  0.0000000E+00  0.0000000E+00
  0.2022022E+03  0.0000000E+00  0.0000000E+00  0.1000000E-03  0.0000000E+00  0.0000000E+00
  0.2032032E+03  0.0000000E+00  0.0000000E+00  0.1000000E-03  0.0000000E+00  0.0000000E+00
  0.2042042E+03  0.0000000E+00  0.0000000E+00  0.1000000E-03  0.0000000E+00  0.0000000E+00
  0.2052052E+03  0.0000000E+00  0.0000000E+00  0.1000000E-03  0.0000000E+00  0.0000000E+00
  0.2062062E+03  0.0000000E+00  0.0000000E+00  0.1000000E-03  0.0000000E+00  0.0000000E+00
  0.2072072E+03  0.0000000E+00  0.0000000E+00  0.1000000E-03  0.0000000E+00  0.0000000E+00
  0.2082082E+03  0.0000000E+00  0.0000000E+00  0.1000000E-03  0.0000000E+00  0.0000000E+00
  0.2092092E+03  0.0000000E+00  0.0000000E+00  0.1000000E-03  0.0000000E+00  0.0000000E+00
  0.2102102E+03  0.0000000E+00  0.0000000E+00  0.1000000E-03  0.0000000E+00  0.0000000E+00
  0.2112112E+03  0.0000000E+00  0.0000000E+00  0.1000000E-03  0.0000000E+00  0.0000000E+00
  0.2122122E+03  0.0000000E+00  0.0000000E+00  0.1000000E-03  0.0000000E+00  0.0000000E+00
  0.2132132E+03  0.0000000E+00  0.0000000E+00  0.1000000E-03  0.0000000E+00  0.0000000E+00
  0.2142142E+03  0.0000000E+00  0.0000000E+00  0.1000000E-03  0.0000000E+00  0.0000000E+00
  0.2152152E+03  0.0000000E+00  0.0000000E+00  0.1000000E-03  0.0000000E+00  0.0000000E+00
  0.2162162E+03  0.0000000E+00  0.0000000E+00  0.1000000E-03  0.0000000E+00  0.0000000E+00
  0.2172172E+03  0.0000000E+00  0.0000000E+00  0.1000000E-03  0.0000000E+00  0.0000000E+00
  0.2182182E+03  0.0000000E+00  0.0000000E+00  0.1000000E-03  0.0000000E+00  0.0000000E+00
  0.2192192E+03  0.0000000E+00  0.0000000E+00  0.1000000E-03  0.0000000E+00  0.0000000E+00
  0.2202202E+03  0.0000000E+00  0.0000000E+00  0.1000000E-03  0.0000000E+00  0.0000000E+00
  0.2212212E+03  0.0000000E+00  0.0000000E+00  0.1000000E-03  0.0000000E+00  0.0000000E+00
  0.2222222E+03  0.0000000E+00  0.0000000E+00  0.1000000E-03  0.0000000E+00  0.0000000E+00
  0.2232232E+03  0.0000000E+00  0.0000000E+00  0.1000000E-03  0.0000000E+00  0.0000000E+00
  0.2242242E+03  0.0000000E+00  0.0000000E+00  0.1000000E-03  0.0000000E+00  0.0000000E+00
  0.2252252E+03  0.0000000E+00  0.0000000E+00  0.1000000E-03  0.0000000E+00  0.0000000E+00
  0.2262262E+03  0.0000000E+00  0.0000000E+00  0.1000000E-03  0.0000000E+00  0.0000000E+00
  0.2272272E+03  0.0000000E+00  0.0000000E+00  0.1000000E-03  0.0000000E+00  0.0000000E+00
  0.2282282E+03  0.0000000E+00  0.0000000E+00  0.1000000E-03  0.0000000E+00  0.0000000E+00
  0.2292292E+03  0.0000000E+00  0.0000000E+00  0.1000000E-03  0.0000000E+00  0.0000000E+00
  0.2302302E+03  0.0000000E+00  0.0000000E+00  0.1000000E-03  0.0000000E+00  0.0000000E+00
  0.2312312E+03  0.0000000E+00  0.0000000E+00  0.1000000E-03  0.0000000E+00  0.0000000E+00
  0.2322322E+03  0.0000000E+00  0.0000000E+00  0.1000000E-03  0.0000000E+00  0.0000000E+00
  0.2332332E+03  0.0000000E+00  0.0000000E+00  0.1000000E-03  0.0000000E+00  0.0000000E+00
  0.2342342E+03  0.0000000E+00  0.0000000E+00  0.1000000E-03  0.0000000E+00  0.0000000E+00
  0.2352352E+03  0.0000000E+00  0.0000000E+00  0.1000000E-03  0.0000000E+00  0.0000000E+00
  0.2362362E+03  0.0000000E+00  0.0000000E+00  0.1000000E-03  0.0000000E+00  0.0000000E+00
  0.2372372E+03  0.0000000E+00  0.0000000E+00  0.1000000E-03  0.0000000E+00  0.0000000E+00
  0.2382382E+03  0.0000000E+00  0.0000000E+00  0.1000000E-03  0.0000000E+00  0.0000000E+00
  0.2392392E+03  0.0000000E+00  0.0000000E+00  0.1000000E-03  0.0000000E+00  0.0000000E+00
  0.2402402E+03  0.0000000E+00  0.0000000E+00  0.1000000E-03  0.0000000E+00  0.0000000E+00
  0.2412412E+03  0.0000000E+00  0.0000000E+00  0.1000000E-03  0.0000000E+00  0.0000000E+00
  0.2422422E+03  0.0000000E+00  0.0000000E+00  0.1000000E-03  0.0000000E+00  0.0000000E+00
  0.2432432E+03  0.0000000E+00  0.0000000E+00  0.1000000E-03  0.0000000E+00  0.0000000E+00
  0.2442442E+03  0.0000000E+00  0.0000000E+00  0.1000000E-03  0.0000000E+00  0.0000000E+00
  0.2452452E+03  0.0000000E+00  0.0000000E+00  0.1000000E-03  0.0000000E+00  0.0000000E+00
  0.2462462E+03  0.0000000E+00  0.0000000E+00  0.1000000E-03  0.0000000E+00  0.0000000E+00
  0.2472472E+03  0.0000000E+00  0.0000000E+00  0.1000000E-03  0.0000000E+00  0.0000000E+00
  0.2482482E+03  0.0000000E+00  0.0000000E+00  0.1000000E-03  0.0000000E+00  0.0000000E+00
  0.2492492E+03  0.0000000E+00  0.0000000E+00  0.1000000E-03  0.0000000E+00  0.0000000E+00
  0.2502503E+03  0.0000000E+00  0.0000000E+00  0.1000000E-03  0.0000000E+00  0.0000000E+00
  0.2512513E+03  0.0000000E+00  0.0000000E+00  0.1000000E-03  0.0000000E+00  0.0000000E+00
  0.2522523E+03  0.0000000E+00  0.0000000E+00  0.1000000E-03  0.0000000E+00  0.0000000E+00
  0.2532533E+03  0.0000000E+00  0.0000000E+00  0.1000000E-03  0.0000000E+00  0.0000000E+00
  0.2542543E+03  0.0000000E+00  0.0000000E+00  0.1000000E-03  0.0000000E+00  0.0000000E+00
  0.2552553E+03  0.0000000E+00  0.0000000E+00  0.1000000E-03  0.0000000E+00  0.0000000E+00
  0.2562563E+03  0.0000000E+00  0.0000000E+00  0.1000000E-03  0.0000000E+00  0.0000000E+00
  0.2572573E+03  0.0000000E+00  0.0000000E+00  0.1000000E-03  0.0000000E+00  0.0000000E+00
  0.2582583E+03  0.0000000E+00  0.0000000E+00  0.1000000E-03  0.0000000E+00  0.0000000E+00
  0.2592593E+03  0.0000000E+00  0.0000000E+00  0.1000000E-03  0.0000000E+00  0.0000000E+00
  0.2602603E+03  0.0000000E+00  0.0000000E+00  0.1000000E-03  0.0000000E+00  0.0000000E+00
  0.2612613E+03  0.0000000E+00  0.0000000E+00  0.1000000E-03  0.0000000E+00  0.0000000E+00
  0.2622623E+03  0.0000000E+00  0.0000000E+00  0.1000000E-03  0.0000000E+00  0.0000000E+00
  0.2632633E+03  0.0000000E+00  0.0000000E+00  0.1000000E-03  0.0000000E+00  0.0000000E+00
  0.2642643E+03  0.0000000E+00  0.0000000E+00  0.1000000E-03  0.0000000E+00  0.0000000E+00
  0.2652653E+03  0.0000000E+00  0.0000000E+00  0.1000000E-03  0.0000000E+00  0.0000000E+00
  0.2662663E+03  0.0000000E+00  0.0000000E+00  0.1000000E-03  0.0000000E+00  0.0000000E+00
  0.2672673E+03  0.0000000E+00  0.0000000E+00  0.1000000E-03  0.0000000E+00  0.0000000E+00
  0.2682683E+03  0.0000000E+00  0.0000000E+00  0.1000000E-03  0.0000000E+00  0.0000000E+00
  0.2692693E+03  0.0000000E+00  0.0000000E+00  0.1000000E-03  0.0000000E+00  0.0000000E+00
  0.2702703E+03  0.0000000E+00  0.0000000E+00  0.1000000E-03  0.0000000E+00  0.0000000E+00
  0.2712713E+03  0.0000000E+00  0.0000000E+00  0.1000000E-03  0.0000000E+00  0.0000000E+00
  0.2722723E+03  0.0000000E+00  0.0000000E+00  0.1000000E-03  0.0000000E+00  0.0000000E+00
  0.2732733E+03  0.0000000E+00  0.0000000E+00  0.1000000E-03  0.0000000E+00  0.0000000E+00
  0.2742743E+03  0.0000000E+00  0.0000000E+00  0.1000000E-03  0.0000000E+00  0.0000000E+00
  0.2752753E+03  0.0000000E+00  0.0000000E+00  0.1000000E-03  0.0000000E+00  0.0000000E+00
  0.2762763E+03  0.0000000E+00  0.0000000E+00  0.1000000E-03  0.0000000E+00  0.0000000E+00
  0.2772773E+03  0.0000000E+00  0.0000000E+00  0.1000000E-03  0.0000000E+00  0.0000000E+00
  0.2782783E+03  0.0000000E+00  0.0000000E+00  0.1000000E-03  0.0000000E+00  0.0000000E+00
  0.2792793E+03  0.0000000E+00  0.0000000E+00  0.1000000E-03  0.0000000E+00  0.0000000E+00
  0.2802803E+03  0.0000000E+00  0.0000000E+00  0.1000000E-03  0.0000000E+00  0.0000000E+00
  0.2812813E+03  0.0000000E+00  0.0000000E+00  0.1000000E-03  0.0000000E+00  0.0000000E+00
  0.2822823E+03  0.0000000E+00  0.0000000E+00  0.1000000E-03  0.0000000E+00  0.0000000E+00
  0.2832833E+03  0.0000000E+00  0.0000000E+00  0.1000000E-03  0.0000000E+00  0.0000000E+00
  0.2842843E+03  0.0000000E+00  0.0000000E+00  0.1000000E-03  0.0000000E+00  0.0000000E+00
  0.2852853E+03  0.0000000E+00  0.0000000E+00  0.1000000E-03  0.0000000E+00  0.0000000E+00
  0.2862863E+03  0.0000000E+00  0.0000000E+00  0.1000000E-03  0.0000000E+00  0.0000000E+00
  0.2872873E+03  0.0000000E+00  0.0000000E+00  0.1000000E-03  0.0000000E+00  0.0000000E+00
  0.2882883E+03  0.0000000E+00  0.0000000E+00  0.1000000E-03  0.0000000E+00  0.0000000E+00
  0.2892893E+03  0.0000000E+00  0.0000000E+00  0.1000000E-03  0.0000000E+00  0.0000000E+00
  0.2902903E+03  0.0000000E+00  0.0000000E+00  0.1000000E-03  0.0000000E+00  0.0000000E+00
  0.2912913E+03  0.0000000E+00  0.0000000E+00  0.1000000E-03  0.0000000E+00  0.0000000E+00
  0.2922923E+03  0.0000000E+00  0.0000000E+00  0.1000000E-03  0.0000000E+00  0.0000000E+00
  0.2932933E+03  0.0000000E+00  0.0000000E+00  0.1000000E-03  0.0000000E+00  0.0000000E+00
  0.2942943E+03  0.0000000E+00  0.0000000E+00  0.1000000E-03  0.0000000E+00  0.0000000E+00
  0.2952953E+03  0.0000000E+00  0.0000000E+00  0.1000000E-03  0.0000000E+00  0.0000000E+00
  0.2962963E+03  0.0000000E+00  0.0000000E+00  0.1000000E-03  0.0000000E+00  0.0000000E+00
  0.2972973E+03  0.0000000E+00  0.0000000E+00  0.1000000E-03  0.0000000E+00  0.0000000E+00
  0.2982983E+03  0.0000000E+00  0.0000000E+00  0.1000000E-03  0.0000000E+00  0.0000000E+00
  0.2992993E+03  0.0000000E+00  0.0000000E+00  0.1000000E-03  0.0000000E+00  0.0000000E+00
  0.3003003E+03  0.0000000E+00  0.0000000E+00  0.1000000E-03  0.0000000E+00  0.0000000E+00
  0.3013013E+03  0.0000000E+00  0.0000000E+00  0.1000000E-03  0.0000000E+00  0.0000000E+00
  0.3023023E+03  0.0000000E+00  0.0000000E+00  0.1000000E-03  0.0000000E+00  0.0000000E+00
  0.3033033E+03  0.0000000E+00  0.0000000E+00  0.1000000E-03  0.0000000E+00  0.0000000E+00
  0.3043043E+03  0.0000000E+00  0.0000000E+00  0.1000000E-03  0.0000000E+00  0.0000000E+00
  0.3053053E+03  0.0000000E+00  0.0000000E+00  0.1000000E-03  0.0000000E+00  0.0000000E+00
  0.3063063E+03  0.0000000E+00  0.0000000E+00  0.1000000E-03  0.0000000E+00  0.0000000E+00
  0.3073073E+03  0.0000000E+00  0.0000000E+00  0.1000000E-03  0.0000000E+00  0.0000000E+00
  0.3083083E+03  0.0000000E+00  0.0000000E+00  0.1000000E-03  0.0000000E+00  0.0000000E+00
  0.3093093E+03  0.0000000E+00  0.0000000E+00  0.1000000E-03  0.0000000E+00  0.0000000E+00
  0.3103103E+03  0.0000000E+00  0.0000000E+00  0.1000000E-03  0.0000000E+00  0.0000000E+00
  0.3113113E+03  0.0000000E+00  0.0000000E+00  0.1000000E-03  0.0000000E+00  0.0000000E+00
  0.3123123E+03  0.0000000E+00  0.0000000E+00  0.1000000E-03  0.0000000E+00  0.0000000E+00
  0.3133133E+03  0.0000000E+00  0.0000000E+00  0.1000000E-03  0.0000000E+00  0.0000000E+00
  0.3143143E+03  0.0000000E+00  0.0000000E+00  0.1000000E-03  0.0000000E+00  0.0000000E+00
  0.3153153E+03  0.0000000E+00  0.0000000E+00  0.1000000E-03  0.0000000E+00  0.0000000E+00
  0.3163163E+03  0.0000000E+00  0.0000000E+00  0.1000000E-03  0.0000000E+00  0.0000000E+00
  0.3173173E+03  0.0000000E+00  0.0000000E+00  0.1000000E-03  0.0000000E+00  0.0000000E+00
  0.3183183E+03  0.0000000E+00  0.0000000E+00  0.1000000E-03  0.0000000E+00  0.0000000E+00
  0.3193193E+03  0.0000000E+00  0.0000000E+00  0.1000000E-03  0.0000000E+00  0.0000000E+00
  0.3203203E+03  0.0000000E+00  0.0000000E+00  0.1000000E-03  0.0000000E+00  0.0000000E+00
  0.3213213E+03  0.0000000E+00  0.0000000E+00  0.1000000E-03  0.0000000E+00  0.0000000E+00
  0.3223223E+03  0.0000000E+00  0.0000000E+00  0.1000000E-03  0.0000000E+00  0.0000000E+00
  0.3233233E+03  0.0000000E+00  0.0000000E+00  0.1000000E-03  0.0000000E+00  0.0000000E+00