title = "dataset perm2"
variables = "x", "y", "z","calcite","ferrihydrite","porosity"
zone t = "phi_i, T =  1.000E+02 years", i =   81, j =    1, k =    1,  f=point
   .0000000E+00   .0000000E+00   .0000000E+00   .1203238E-01   .7129586E-01   .2671241E+00
   .0000000E+00   .0000000E+00   .1250000E-02   .1115099E-01   .5138275E-01   .2878031E+00
   .0000000E+00   .0000000E+00   .2500000E-02   .1042904E-01   .3739149E-01   .3024353E+00
   .0000000E+00   .0000000E+00   .3750000E-02   .9829853E-02   .2744251E-01   .3129259E+00
   .0000000E+00   .0000000E+00   .5000000E-02   .9325369E-02   .2029089E-01   .3205406E+00
   .0000000E+00   .0000000E+00   .6250000E-02   .8894220E-02   .1510038E-01   .3261321E+00
   .0000000E+00   .0000000E+00   .7500000E-02   .8520171E-02   .1130123E-01   .3302831E+00
   .0000000E+00   .0000000E+00   .8750000E-02   .8190896E-02   .8499869E-02   .3333971E+00
   .0000000E+00   .0000000E+00   .1000000E-01   .7897025E-02   .6420916E-02   .3357575E+00
   .0000000E+00   .0000000E+00   .1125000E-01   .7631422E-02   .4869375E-02   .3375651E+00
   .0000000E+00   .0000000E+00   .1250000E-01   .7388636E-02   .3705713E-02   .3389642E+00
   .0000000E+00   .0000000E+00   .1375000E-01   .7164488E-02   .2829137E-02   .3400592E+00
   .0000000E+00   .0000000E+00   .1500000E-01   .6955760E-02   .2166235E-02   .3409264E+00
   .0000000E+00   .0000000E+00   .1625000E-01   .6759962E-02   .1663153E-02   .3416216E+00
   .0000000E+00   .0000000E+00   .1750000E-01   .6575155E-02   .1280130E-02   .3421865E+00
   .0000000E+00   .0000000E+00   .1875000E-01   .6399819E-02   .9876491E-03   .3426519E+00
   .0000000E+00   .0000000E+00   .2000000E-01   .6232757E-02   .7636921E-03   .3430409E+00
   .0000000E+00   .0000000E+00   .2125000E-01   .6073014E-02   .5917604E-03   .3433708E+00
   .0000000E+00   .0000000E+00   .2250000E-01   .5919822E-02   .4594451E-03   .3436548E+00
   .0000000E+00   .0000000E+00   .2375000E-01   .5772562E-02   .3573799E-03   .3439028E+00
   .0000000E+00   .0000000E+00   .2500000E-01   .5630721E-02   .2784726E-03   .3441224E+00
   .0000000E+00   .0000000E+00   .2625000E-01   .5493879E-02   .2173369E-03   .3443193E+00
   .0000000E+00   .0000000E+00   .2750000E-01   .5361680E-02   .1698709E-03   .3444980E+00
   .0000000E+00   .0000000E+00   .2875000E-01   .5233824E-02   .1329433E-03   .3446619E+00
   .0000000E+00   .0000000E+00   .3000000E-01   .5110050E-02   .1041569E-03   .3448137E+00
   .0000000E+00   .0000000E+00   .3125000E-01   .4990134E-02   .8167340E-04   .3449553E+00
   .0000000E+00   .0000000E+00   .3250000E-01   .4873878E-02   .6407898E-04   .3450884E+00
   .0000000E+00   .0000000E+00   .3375000E-01   .4761104E-02   .5028483E-04   .3452143E+00
   .0000000E+00   .0000000E+00   .3500000E-01   .4651654E-02   .3944968E-04   .3453339E+00
   .0000000E+00   .0000000E+00   .3625000E-01   .4545384E-02   .3092333E-04   .3454481E+00
   .0000000E+00   .0000000E+00   .3750000E-01   .4442162E-02   .2420102E-04   .3455574E+00
   .0000000E+00   .0000000E+00   .3875000E-01   .4341866E-02   .1889124E-04   .3456625E+00
   .0000000E+00   .0000000E+00   .4000000E-01   .4244383E-02   .1468851E-04   .3457636E+00
   .0000000E+00   .0000000E+00   .4125000E-01   .4149608E-02   .1135489E-04   .3458612E+00
   .0000000E+00   .0000000E+00   .4250000E-01   .4057442E-02   .8703421E-05   .3459555E+00
   .0000000E+00   .0000000E+00   .4375000E-01   .3967792E-02   .6587384E-05   .3460467E+00
   .0000000E+00   .0000000E+00   .4500000E-01   .3880569E-02   .4889970E-05   .3461352E+00
   .0000000E+00   .0000000E+00   .4625000E-01   .3795690E-02   .3517623E-05   .3462209E+00
   .0000000E+00   .0000000E+00   .4750000E-01   .3713074E-02   .2393246E-05   .3463042E+00
   .0000000E+00   .0000000E+00   .4875000E-01   .3632647E-02   .1451229E-05   .3463851E+00
   .0000000E+00   .0000000E+00   .5000000E-01   .3554334E-02   .6322558E-06   .3464638E+00
   .0000000E+00   .0000000E+00   .5125000E-01   .3478064E-02   .1000000E-09   .3465403E+00
   .0000000E+00   .0000000E+00   .5250000E-01   .3403771E-02   .1000000E-09   .3466142E+00
   .0000000E+00   .0000000E+00   .5375000E-01   .3331391E-02   .1000000E-09   .3466862E+00
   .0000000E+00   .0000000E+00   .5500000E-01   .3260867E-02   .1000000E-09   .3467563E+00
   .0000000E+00   .0000000E+00   .5625000E-01   .3192140E-02   .1000000E-09   .3468247E+00
   .0000000E+00   .0000000E+00   .5750000E-01   .3125156E-02   .1000000E-09   .3468913E+00
   .0000000E+00   .0000000E+00   .5875000E-01   .3059862E-02   .1000000E-09   .3469562E+00
   .0000000E+00   .0000000E+00   .6000000E-01   .2996206E-02   .1000000E-09   .3470195E+00
   .0000000E+00   .0000000E+00   .6125000E-01   .2934140E-02   .1000000E-09   .3470813E+00
   .0000000E+00   .0000000E+00   .6250000E-01   .2873617E-02   .1000000E-09   .3471415E+00
   .0000000E+00   .0000000E+00   .6375000E-01   .2814592E-02   .1000000E-09   .3472002E+00
   .0000000E+00   .0000000E+00   .6500000E-01   .2757022E-02   .1000000E-09   .3472574E+00
   .0000000E+00   .0000000E+00   .6625000E-01   .2700867E-02   .1000000E-09   .3473133E+00
   .0000000E+00   .0000000E+00   .6750000E-01   .2646086E-02   .1000000E-09   .3473678E+00
   .0000000E+00   .0000000E+00   .6875000E-01   .2592643E-02   .1000000E-09   .3474209E+00
   .0000000E+00   .0000000E+00   .7000000E-01   .2540505E-02   .1000000E-09   .3474728E+00
   .0000000E+00   .0000000E+00   .7125000E-01   .2489637E-02   .1000000E-09   .3475234E+00
   .0000000E+00   .0000000E+00   .7250000E-01   .2440009E-02   .1000000E-09   .3475727E+00
   .0000000E+00   .0000000E+00   .7375000E-01   .2391597E-02   .1000000E-09   .3476209E+00
   .0000000E+00   .0000000E+00   .7500000E-01   .2344375E-02   .1000000E-09   .3476678E+00
   .0000000E+00   .0000000E+00   .7625000E-01   .2298324E-02   .1000000E-09   .3477136E+00
   .0000000E+00   .0000000E+00   .7750000E-01   .2253429E-02   .1000000E-09   .3477583E+00
   .0000000E+00   .0000000E+00   .7875000E-01   .2209680E-02   .1000000E-09   .3478018E+00
   .0000000E+00   .0000000E+00   .8000000E-01   .2167074E-02   .1000000E-09   .3478442E+00
   .0000000E+00   .0000000E+00   .8125000E-01   .2125614E-02   .1000000E-09   .3478854E+00
   .0000000E+00   .0000000E+00   .8250000E-01   .2085317E-02   .1000000E-09   .3479255E+00
   .0000000E+00   .0000000E+00   .8375000E-01   .2046209E-02   .1000000E-09   .3479644E+00
   .0000000E+00   .0000000E+00   .8500000E-01   .2008331E-02   .1000000E-09   .3480021E+00
   .0000000E+00   .0000000E+00   .8625000E-01   .1971745E-02   .1000000E-09   .3480385E+00
   .0000000E+00   .0000000E+00   .8750000E-01   .1936537E-02   .1000000E-09   .3480735E+00
   .0000000E+00   .0000000E+00   .8875000E-01   .1902823E-02   .1000000E-09   .3481070E+00
   .0000000E+00   .0000000E+00   .9000000E-01   .1870755E-02   .1000000E-09   .3481389E+00
   .0000000E+00   .0000000E+00   .9125000E-01   .1840537E-02   .1000000E-09   .3481690E+00
   .0000000E+00   .0000000E+00   .9250000E-01   .1812434E-02   .1000000E-09   .3481969E+00
   .0000000E+00   .0000000E+00   .9375000E-01   .1786789E-02   .1000000E-09   .3482224E+00
   .0000000E+00   .0000000E+00   .9500000E-01   .1764047E-02   .1000000E-09   .3482450E+00
   .0000000E+00   .0000000E+00   .9625000E-01   .1744779E-02   .1000000E-09   .3482642E+00
   .0000000E+00   .0000000E+00   .9750000E-01   .1729722E-02   .1000000E-09   .3482792E+00
   .0000000E+00   .0000000E+00   .9875000E-01   .1719820E-02   .1000000E-09   .3482890E+00
   .0000000E+00   .0000000E+00   .1000000E+00   .1716291E-02   .1000000E-09   .3482925E+00
