title = "dataset perm2"
variables = "time","calcite","ferrihydrite","porosity"
zone t = "phi_i, volume =     1", f=point
  0.0000000E+00  0.1000000E-09  0.1000000E-09  0.3500000E+00
  0.1000000E-05  0.1000000E-09  0.1000000E-09  0.3500000E+00
  0.2000000E-05  0.1000000E-09  0.1000000E-09  0.3500000E+00
  0.3073010E-05  0.1000000E-09  0.1000000E-09  0.3500000E+00
  0.4529926E-05  0.1000000E-09  0.1000000E-09  0.3500000E+00
  0.6345311E-05  0.1000000E-09  0.1000000E-09  0.3500000E+00
  0.8797999E-05  0.1000000E-09  0.1000000E-09  0.3500000E+00
  0.1181006E-04  0.1000000E-09  0.1000000E-09  0.3500000E+00
  0.1549215E-04  0.1000000E-09  0.1000000E-09  0.3500000E+00
  0.2023408E-04  0.1000000E-09  0.1044603E-09  0.3500000E+00
  0.2579306E-04  0.1000000E-09  0.1388313E-09  0.3500000E+00
  0.3263978E-04  0.1000000E-09  0.2521569E-09  0.3500000E+00
  0.4090793E-04  0.1000000E-09  0.5220689E-09  0.3500000E+00
  0.5057180E-04  0.1000000E-09  0.1046104E-08  0.3500000E+00
  0.6223596E-04  0.1000000E-09  0.1998859E-08  0.3500000E+00
  0.7574725E-04  0.1000000E-09  0.3528213E-08  0.3500000E+00
  0.9158044E-04  0.1000000E-09  0.5874572E-08  0.3500000E+00
  0.1103775E-03  0.1000000E-09  0.9379846E-08  0.3500000E+00
  0.1316696E-03  0.1000000E-09  0.1418888E-07  0.3500000E+00
  0.1564382E-03  0.1815528E-09  0.2080059E-07  0.3500000E+00
  0.1848791E-03  0.3886350E-09  0.2958346E-07  0.3500000E+00
  0.2176732E-03  0.7641923E-09  0.4110187E-07  0.3500000E+00
  0.2551897E-03  0.1355805E-08  0.5586220E-07  0.3500000E+00
  0.2979980E-03  0.2221293E-08  0.7447714E-07  0.3499999E+00
  0.3466137E-03  0.3425394E-08  0.9755938E-07  0.3499999E+00
  0.4017386E-03  0.5046131E-08  0.1258241E-06  0.3499999E+00
  0.4641986E-03  0.7176184E-08  0.1600660E-06  0.3499999E+00
  0.5350764E-03  0.9930883E-08  0.2012373E-06  0.3499998E+00
  0.6148052E-03  0.1340975E-07  0.2498818E-06  0.3499998E+00
  0.7049281E-03  0.1777314E-07  0.3071907E-06  0.3499997E+00
  0.8060909E-03  0.2315144E-07  0.3737499E-06  0.3499997E+00
  0.9202351E-03  0.2975927E-07  0.4509568E-06  0.3499996E+00
  0.1048209E-02  0.3776376E-07  0.5394263E-06  0.3499995E+00
  0.1191808E-02  0.4740341E-07  0.6403717E-06  0.3499994E+00
  0.1352748E-02  0.5892938E-07  0.7549191E-06  0.3499993E+00
  0.1532512E-02  0.7258826E-07  0.8839930E-06  0.3499992E+00
  0.1733676E-02  0.8872640E-07  0.1029293E-05  0.3499990E+00
  0.1958345E-02  0.1076701E-06  0.1192178E-05  0.3499989E+00
  0.2209481E-02  0.1298340E-06  0.1374647E-05  0.3499987E+00
  0.2489397E-02  0.1555884E-06  0.1578248E-05  0.3499985E+00
  0.2801623E-02  0.1854261E-06  0.1805448E-05  0.3499983E+00
  0.3149199E-02  0.2198025E-06  0.2058391E-05  0.3499980E+00
  0.3536800E-02  0.2593433E-06  0.2340445E-05  0.3499977E+00
  0.3968090E-02  0.3045764E-06  0.2654264E-05  0.3499974E+00
  0.4448175E-02  0.3561789E-06  0.3003573E-05  0.3499970E+00
  0.4982059E-02  0.4148149E-06  0.3392028E-05  0.3499966E+00
  0.5542000E-02  0.4774192E-06  0.3799454E-05  0.3499962E+00
  0.6120601E-02  0.5430615E-06  0.4220478E-05  0.3499957E+00
  0.6718610E-02  0.6117250E-06  0.4655645E-05  0.3499952E+00
  0.7335493E-02  0.6832576E-06  0.5104563E-05  0.3499947E+00
  0.7973079E-02  0.7577936E-06  0.5568554E-05  0.3499942E+00
  0.8634603E-02  0.8356483E-06  0.6049965E-05  0.3499937E+00
  0.9324855E-02  0.9173362E-06  0.6552272E-05  0.3499931E+00
  0.1004849E-01  0.1003370E-05  0.7078856E-05  0.3499925E+00
  0.1080250E-01  0.1093353E-05  0.7627509E-05  0.3499919E+00
  0.1159886E-01  0.1188687E-05  0.8206952E-05  0.3499913E+00
  0.1243263E-01  0.1288751E-05  0.8813565E-05  0.3499906E+00
  0.1331271E-01  0.1394593E-05  0.9453834E-05  0.3499899E+00
  0.1424487E-01  0.1506886E-05  0.1013195E-04  0.3499892E+00
  0.1523345E-01  0.1626135E-05  0.1085104E-04  0.3499884E+00
  0.1628366E-01  0.1752954E-05  0.1161492E-04  0.3499875E+00
  0.1740418E-01  0.1888378E-05  0.1242989E-04  0.3499866E+00
  0.1860022E-01  0.2033025E-05  0.1329974E-04  0.3499857E+00
  0.1988098E-01  0.2187996E-05  0.1423115E-04  0.3499847E+00
  0.2122951E-01  0.2351228E-05  0.1521180E-04  0.3499836E+00
  0.2266715E-01  0.2525297E-05  0.1625721E-04  0.3499824E+00
  0.2421870E-01  0.2713198E-05  0.1738541E-04  0.3499812E+00
  0.2625690E-01  0.2960079E-05  0.1886743E-04  0.3499799E+00
  0.2947663E-01  0.3350133E-05  0.2120848E-04  0.3499782E+00
  0.3550019E-01  0.4079933E-05  0.2558805E-04  0.3499754E+00
  0.4676923E-01  0.5445327E-05  0.3378130E-04  0.3499703E+00
  0.6785168E-01  0.7999771E-05  0.4910931E-04  0.3499608E+00
  0.1133950E+00  0.1351799E-04  0.8222128E-04  0.3499429E+00
  0.1985987E+00  0.2384158E-04  0.1441671E-03  0.3499043E+00
  0.3580002E+00  0.4315504E-04  0.2600534E-03  0.3498320E+00
  0.7023469E+00  0.8487600E-04  0.5103819E-03  0.3496968E+00
  0.1446221E+01  0.1749996E-03  0.1051085E-02  0.3494047E+00
  0.2446221E+01  0.2961422E-03  0.1777762E-02  0.3487739E+00
  0.3446221E+01  0.4172691E-03  0.2504173E-02  0.3479261E+00
  0.4446221E+01  0.5383803E-03  0.3230318E-02  0.3470786E+00
  0.5446221E+01  0.6594759E-03  0.3956195E-02  0.3462313E+00
  0.6446221E+01  0.7805558E-03  0.4681805E-02  0.3453843E+00
  0.7446221E+01  0.9016199E-03  0.5407147E-02  0.3445376E+00
  0.8446221E+01  0.1022668E-02  0.6132220E-02  0.3436912E+00
  0.9446221E+01  0.1143701E-02  0.6857024E-02  0.3428451E+00
  0.1044622E+02  0.1264717E-02  0.7581558E-02  0.3419993E+00
  0.1144622E+02  0.1385718E-02  0.8305823E-02  0.3411537E+00
  0.1244622E+02  0.1506703E-02  0.9029817E-02  0.3403085E+00
  0.1344622E+02  0.1627672E-02  0.9753539E-02  0.3394635E+00
  0.1444622E+02  0.1748625E-02  0.1047699E-01  0.3386188E+00
  0.1544622E+02  0.1869561E-02  0.1120017E-01  0.3377744E+00
  0.1644622E+02  0.1990482E-02  0.1192308E-01  0.3369303E+00
  0.1744622E+02  0.2111387E-02  0.1264571E-01  0.3360864E+00
  0.1844622E+02  0.2232275E-02  0.1336807E-01  0.3352429E+00
  0.1944622E+02  0.2353147E-02  0.1409015E-01  0.3343997E+00
  0.2044622E+02  0.2474003E-02  0.1481196E-01  0.3335567E+00
  0.2144622E+02  0.2594843E-02  0.1553350E-01  0.3327140E+00
  0.2244622E+02  0.2715666E-02  0.1625476E-01  0.3318717E+00
  0.2344622E+02  0.2836473E-02  0.1697574E-01  0.3310296E+00
  0.2444622E+02  0.2957264E-02  0.1769644E-01  0.3301878E+00
  0.2544622E+02  0.3078038E-02  0.1841687E-01  0.3293463E+00
  0.2644622E+02  0.3198796E-02  0.1913702E-01  0.3285051E+00
  0.2744622E+02  0.3319537E-02  0.1985689E-01  0.3276642E+00
  0.2844622E+02  0.3440262E-02  0.2057648E-01  0.3268236E+00
  0.2944622E+02  0.3560970E-02  0.2129579E-01  0.3259833E+00
  0.3044622E+02  0.3681661E-02  0.2201482E-01  0.3251432E+00
  0.3144622E+02  0.3802336E-02  0.2273357E-01  0.3243035E+00
  0.3244622E+02  0.3922994E-02  0.2345204E-01  0.3234641E+00
  0.3344622E+02  0.4043635E-02  0.2417022E-01  0.3226250E+00
  0.3444622E+02  0.4164259E-02  0.2488812E-01  0.3217861E+00
  0.3544622E+02  0.4284867E-02  0.2560574E-01  0.3209476E+00
  0.3644622E+02  0.4405457E-02  0.2632308E-01  0.3201094E+00
  0.3744622E+02  0.4526031E-02  0.2704012E-01  0.3192715E+00
  0.3844622E+02  0.4646587E-02  0.2775689E-01  0.3184338E+00
  0.3944622E+02  0.4767127E-02  0.2847336E-01  0.3175965E+00
  0.4044622E+02  0.4887649E-02  0.2918955E-01  0.3167595E+00
  0.4144622E+02  0.5008154E-02  0.2990546E-01  0.3159228E+00
  0.4244622E+02  0.5128642E-02  0.3062107E-01  0.3150864E+00
  0.4344622E+02  0.5249113E-02  0.3133639E-01  0.3142503E+00
  0.4444622E+02  0.5369567E-02  0.3205143E-01  0.3134145E+00
  0.4544622E+02  0.5490003E-02  0.3276617E-01  0.3125790E+00
  0.4644622E+02  0.5610422E-02  0.3348063E-01  0.3117438E+00
  0.4744622E+02  0.5730823E-02  0.3419479E-01  0.3109089E+00
  0.4844622E+02  0.5851207E-02  0.3490866E-01  0.3100744E+00
  0.4944622E+02  0.5971573E-02  0.3562224E-01  0.3092401E+00
  0.5044622E+02  0.6091922E-02  0.3633552E-01  0.3084062E+00
  0.5144622E+02  0.6212253E-02  0.3704851E-01  0.3075726E+00
  0.5244622E+02  0.6332567E-02  0.3776120E-01  0.3067392E+00
  0.5344622E+02  0.6452862E-02  0.3847360E-01  0.3059062E+00
  0.5444622E+02  0.6573140E-02  0.3918570E-01  0.3050735E+00
  0.5544622E+02  0.6693400E-02  0.3989750E-01  0.3042412E+00
  0.5644622E+02  0.6813642E-02  0.4060901E-01  0.3034091E+00
  0.5744622E+02  0.6933866E-02  0.4132021E-01  0.3025773E+00
  0.5844622E+02  0.7054072E-02  0.4203112E-01  0.3017459E+00
  0.5944622E+02  0.7174260E-02  0.4274173E-01  0.3009148E+00
  0.6044622E+02  0.7294430E-02  0.4345203E-01  0.3000840E+00
  0.6144622E+02  0.7414582E-02  0.4416203E-01  0.2992535E+00
  0.6244622E+02  0.7534716E-02  0.4487173E-01  0.2984234E+00
  0.6344622E+02  0.7654831E-02  0.4558113E-01  0.2975936E+00
  0.6444622E+02  0.7774928E-02  0.4629022E-01  0.2967640E+00
  0.6544622E+02  0.7895006E-02  0.4699900E-01  0.2959349E+00
  0.6644622E+02  0.8015066E-02  0.4770748E-01  0.2951060E+00
  0.6744622E+02  0.8135107E-02  0.4841565E-01  0.2942775E+00
  0.6844622E+02  0.8255130E-02  0.4912352E-01  0.2934492E+00
  0.6944622E+02  0.8375134E-02  0.4983107E-01  0.2926214E+00
  0.7044622E+02  0.8495120E-02  0.5053832E-01  0.2917938E+00
  0.7144622E+02  0.8615087E-02  0.5124526E-01  0.2909666E+00
  0.7244622E+02  0.8735034E-02  0.5195188E-01  0.2901397E+00
  0.7344622E+02  0.8854963E-02  0.5265819E-01  0.2893131E+00
  0.7444622E+02  0.8974873E-02  0.5336419E-01  0.2884868E+00
  0.7544622E+02  0.9094764E-02  0.5406988E-01  0.2876609E+00
  0.7644622E+02  0.9214636E-02  0.5477524E-01  0.2868354E+00
  0.7744622E+02  0.9334489E-02  0.5548030E-01  0.2860101E+00
  0.7844622E+02  0.9454323E-02  0.5618504E-01  0.2851852E+00
  0.7944622E+02  0.9574137E-02  0.5688946E-01  0.2843606E+00
  0.8044622E+02  0.9693932E-02  0.5759356E-01  0.2835364E+00
  0.8144622E+02  0.9813707E-02  0.5829734E-01  0.2827125E+00
  0.8244622E+02  0.9933463E-02  0.5900080E-01  0.2818890E+00
  0.8344622E+02  0.1005320E-01  0.5970394E-01  0.2810657E+00
  0.8444622E+02  0.1017292E-01  0.6040675E-01  0.2802429E+00
  0.8544622E+02  0.1029261E-01  0.6110925E-01  0.2794203E+00
  0.8644622E+02  0.1041229E-01  0.6181141E-01  0.2785981E+00
  0.8744622E+02  0.1053195E-01  0.6251326E-01  0.2777763E+00
  0.8844622E+02  0.1065159E-01  0.6321477E-01  0.2769548E+00
  0.8944622E+02  0.1077120E-01  0.6391596E-01  0.2761336E+00
  0.9044622E+02  0.1089080E-01  0.6461682E-01  0.2753128E+00
  0.9144622E+02  0.1101038E-01  0.6531735E-01  0.2744924E+00
  0.9244622E+02  0.1112993E-01  0.6601755E-01  0.2736723E+00
  0.9344622E+02  0.1124947E-01  0.6671742E-01  0.2728525E+00
  0.9444622E+02  0.1136899E-01  0.6741695E-01  0.2720331E+00
  0.9544622E+02  0.1148848E-01  0.6811615E-01  0.2712141E+00
  0.9644622E+02  0.1160796E-01  0.6881502E-01  0.2703954E+00
  0.9744622E+02  0.1172741E-01  0.6951355E-01  0.2695770E+00
  0.9844622E+02  0.1184685E-01  0.7021174E-01  0.2687590E+00
  0.9944622E+02  0.1196626E-01  0.7090959E-01  0.2679414E+00
  0.1000000E+03  0.1203238E-01  0.7129586E-01  0.2671241E+00
  0.1010000E+03  0.1215176E-01  0.7199318E-01  0.2666718E+00
  0.1020000E+03  0.1227112E-01  0.7269017E-01  0.2658551E+00
  0.1030000E+03  0.1239046E-01  0.7338681E-01  0.2650387E+00
  0.1040000E+03  0.1250978E-01  0.7408310E-01  0.2642227E+00
  0.1050000E+03  0.1262907E-01  0.7477905E-01  0.2634071E+00
  0.1060000E+03  0.1274835E-01  0.7547466E-01  0.2625919E+00
  0.1070000E+03  0.1286760E-01  0.7616992E-01  0.2617770E+00
  0.1080000E+03  0.1298683E-01  0.7686482E-01  0.2609625E+00
  0.1090000E+03  0.1310604E-01  0.7755938E-01  0.2601483E+00
  0.1100000E+03  0.1322523E-01  0.7825359E-01  0.2593346E+00
  0.1110000E+03  0.1334440E-01  0.7894744E-01  0.2585212E+00
  0.1120000E+03  0.1346355E-01  0.7964094E-01  0.2577082E+00
  0.1130000E+03  0.1358267E-01  0.8033409E-01  0.2568955E+00
  0.1140000E+03  0.1370177E-01  0.8102688E-01  0.2560832E+00
  0.1150000E+03  0.1382085E-01  0.8171931E-01  0.2552714E+00
  0.1160000E+03  0.1393991E-01  0.8241138E-01  0.2544598E+00
  0.1170000E+03  0.1405894E-01  0.8310309E-01  0.2536487E+00
  0.1180000E+03  0.1417795E-01  0.8379444E-01  0.2528380E+00
  0.1190000E+03  0.1429694E-01  0.8448542E-01  0.2520276E+00
  0.1200000E+03  0.1441591E-01  0.8517604E-01  0.2512176E+00
  0.1210000E+03  0.1453485E-01  0.8586630E-01  0.2504080E+00
  0.1220000E+03  0.1465377E-01  0.8655618E-01  0.2495988E+00
  0.1230000E+03  0.1477267E-01  0.8724570E-01  0.2487900E+00
  0.1240000E+03  0.1489155E-01  0.8793485E-01  0.2479816E+00
  0.1250000E+03  0.1501040E-01  0.8862362E-01  0.2471736E+00
  0.1260000E+03  0.1512923E-01  0.8931202E-01  0.2463660E+00
  0.1270000E+03  0.1524803E-01  0.9000005E-01  0.2455587E+00
  0.1280000E+03  0.1536682E-01  0.9068770E-01  0.2447519E+00
  0.1290000E+03  0.1548557E-01  0.9137497E-01  0.2439455E+00
  0.1300000E+03  0.1560431E-01  0.9206186E-01  0.2431395E+00
  0.1310000E+03  0.1572302E-01  0.9274837E-01  0.2423338E+00
  0.1320000E+03  0.1584171E-01  0.9343449E-01  0.2415286E+00
  0.1330000E+03  0.1596037E-01  0.9412024E-01  0.2407238E+00
  0.1340000E+03  0.1607901E-01  0.9480559E-01  0.2399194E+00
  0.1350000E+03  0.1619762E-01  0.9549056E-01  0.2391154E+00
  0.1360000E+03  0.1631621E-01  0.9617513E-01  0.2383118E+00
  0.1370000E+03  0.1643478E-01  0.9685932E-01  0.2375087E+00
  0.1380000E+03  0.1655332E-01  0.9754311E-01  0.2367059E+00
  0.1390000E+03  0.1667183E-01  0.9822651E-01  0.2359036E+00
  0.1400000E+03  0.1679032E-01  0.9890951E-01  0.2351017E+00
  0.1410000E+03  0.1690879E-01  0.9959212E-01  0.2343002E+00
  0.1420000E+03  0.1702723E-01  0.1002743E+00  0.2334991E+00
  0.1430000E+03  0.1714565E-01  0.1009561E+00  0.2326984E+00
  0.1440000E+03  0.1726404E-01  0.1016375E+00  0.2318982E+00
  0.1450000E+03  0.1738240E-01  0.1023185E+00  0.2310984E+00
  0.1460000E+03  0.1750074E-01  0.1029991E+00  0.2302991E+00
  0.1470000E+03  0.1761905E-01  0.1036793E+00  0.2295002E+00
  0.1480000E+03  0.1773734E-01  0.1043590E+00  0.2287017E+00
  0.1490000E+03  0.1785560E-01  0.1050384E+00  0.2279036E+00
  0.1500000E+03  0.1797383E-01  0.1057173E+00  0.2271060E+00
  0.1510000E+03  0.1809204E-01  0.1063958E+00  0.2263089E+00
  0.1520000E+03  0.1821022E-01  0.1070739E+00  0.2255121E+00
  0.1530000E+03  0.1832838E-01  0.1077516E+00  0.2247158E+00
  0.1540000E+03  0.1844651E-01  0.1084289E+00  0.2239200E+00
  0.1550000E+03  0.1856461E-01  0.1091057E+00  0.2231246E+00
  0.1560000E+03  0.1868268E-01  0.1097821E+00  0.2223297E+00
  0.1570000E+03  0.1880073E-01  0.1104581E+00  0.2215352E+00
  0.1580000E+03  0.1891875E-01  0.1111336E+00  0.2207412E+00
  0.1590000E+03  0.1903674E-01  0.1118087E+00  0.2199477E+00
  0.1600000E+03  0.1915470E-01  0.1124834E+00  0.2191546E+00
  0.1610000E+03  0.1927264E-01  0.1131576E+00  0.2183619E+00
  0.1620000E+03  0.1939054E-01  0.1138314E+00  0.2175698E+00
  0.1630000E+03  0.1950842E-01  0.1145047E+00  0.2167781E+00
  0.1640000E+03  0.1962627E-01  0.1151776E+00  0.2159868E+00
  0.1650000E+03  0.1974410E-01  0.1158501E+00  0.2151961E+00
  0.1660000E+03  0.1986189E-01  0.1165221E+00  0.2144058E+00
  0.1670000E+03  0.1997965E-01  0.1171936E+00  0.2136160E+00
  0.1680000E+03  0.2009739E-01  0.1178647E+00  0.2128267E+00
  0.1690000E+03  0.2021509E-01  0.1185354E+00  0.2120379E+00
  0.1700000E+03  0.2033277E-01  0.1192055E+00  0.2112495E+00
  0.1710000E+03  0.2045042E-01  0.1198753E+00  0.2104617E+00
  0.1720000E+03  0.2056803E-01  0.1205445E+00  0.2096743E+00
  0.1730000E+03  0.2068562E-01  0.1212133E+00  0.2088875E+00
  0.1740000E+03  0.2080318E-01  0.1218816E+00  0.2081011E+00
  0.1750000E+03  0.2092070E-01  0.1225494E+00  0.2073152E+00
  0.1760000E+03  0.2103820E-01  0.1232168E+00  0.2065299E+00
  0.1770000E+03  0.2115566E-01  0.1238837E+00  0.2057450E+00
  0.1780000E+03  0.2127309E-01  0.1245501E+00  0.2049607E+00
  0.1790000E+03  0.2139050E-01  0.1252160E+00  0.2041768E+00
  0.1800000E+03  0.2150787E-01  0.1258814E+00  0.2033935E+00
  0.1810000E+03  0.2162521E-01  0.1265464E+00  0.2026107E+00
  0.1820000E+03  0.2174251E-01  0.1272108E+00  0.2018284E+00
  0.1830000E+03  0.2185979E-01  0.1278748E+00  0.2010466E+00
  0.1840000E+03  0.2197703E-01  0.1285383E+00  0.2002654E+00
  0.1850000E+03  0.2209424E-01  0.1292012E+00  0.1994847E+00
  0.1860000E+03  0.2221142E-01  0.1298637E+00  0.1987045E+00
  0.1870000E+03  0.2232856E-01  0.1305256E+00  0.1979249E+00
  0.1880000E+03  0.2244567E-01  0.1311870E+00  0.1971458E+00
  0.1890000E+03  0.2256275E-01  0.1318480E+00  0.1963673E+00
  0.1900000E+03  0.2267979E-01  0.1325084E+00  0.1955893E+00
  0.1910000E+03  0.2279680E-01  0.1331682E+00  0.1948118E+00
  0.1920000E+03  0.2291378E-01  0.1338276E+00  0.1940349E+00
  0.1930000E+03  0.2303072E-01  0.1344864E+00  0.1932586E+00
  0.1940000E+03  0.2314763E-01  0.1351447E+00  0.1924828E+00
  0.1950000E+03  0.2326450E-01  0.1358025E+00  0.1917076E+00
  0.1960000E+03  0.2338133E-01  0.1364597E+00  0.1909330E+00
  0.1970000E+03  0.2349813E-01  0.1371164E+00  0.1901589E+00
  0.1980000E+03  0.2361490E-01  0.1377726E+00  0.1893854E+00
  0.1990000E+03  0.2373163E-01  0.1384282E+00  0.1886125E+00
  0.2000000E+03  0.2384832E-01  0.1390832E+00  0.1878402E+00
  0.2010000E+03  0.2396498E-01  0.1397377E+00  0.1870684E+00
  0.2020000E+03  0.2408159E-01  0.1403917E+00  0.1862973E+00
  0.2030000E+03  0.2419818E-01  0.1410450E+00  0.1855267E+00
  0.2040000E+03  0.2431472E-01  0.1416978E+00  0.1847568E+00
  0.2050000E+03  0.2443123E-01  0.1423501E+00  0.1839874E+00
  0.2060000E+03  0.2454770E-01  0.1430017E+00  0.1832187E+00
  0.2070000E+03  0.2466413E-01  0.1436528E+00  0.1824506E+00
  0.2080000E+03  0.2478052E-01  0.1443033E+00  0.1816830E+00
  0.2090000E+03  0.2489687E-01  0.1449532E+00  0.1809161E+00
  0.2100000E+03  0.2501319E-01  0.1456026E+00  0.1801499E+00
  0.2110000E+03  0.2512946E-01  0.1462513E+00  0.1793842E+00
  0.2120000E+03  0.2524570E-01  0.1468994E+00  0.1786192E+00
  0.2130000E+03  0.2536189E-01  0.1475470E+00  0.1778549E+00
  0.2140000E+03  0.2547804E-01  0.1481939E+00  0.1770911E+00
  0.2150000E+03  0.2559416E-01  0.1488402E+00  0.1763281E+00
  0.2160000E+03  0.2571023E-01  0.1494859E+00  0.1755657E+00
  0.2170000E+03  0.2582626E-01  0.1501310E+00  0.1748039E+00
  0.2180000E+03  0.2594225E-01  0.1507754E+00  0.1740428E+00
  0.2190000E+03  0.2605819E-01  0.1514192E+00  0.1732824E+00
  0.2200000E+03  0.2617409E-01  0.1520624E+00  0.1725226E+00
  0.2210000E+03  0.2628995E-01  0.1527049E+00  0.1717635E+00
  0.2220000E+03  0.2640577E-01  0.1533468E+00  0.1710051E+00
  0.2230000E+03  0.2652154E-01  0.1539881E+00  0.1702474E+00
  0.2240000E+03  0.2663727E-01  0.1546287E+00  0.1694904E+00
  0.2250000E+03  0.2675296E-01  0.1552686E+00  0.1687341E+00
  0.2260000E+03  0.2686859E-01  0.1559078E+00  0.1679785E+00
  0.2270000E+03  0.2698419E-01  0.1565464E+00  0.1672236E+00
  0.2280000E+03  0.2709974E-01  0.1571843E+00  0.1664694E+00
  0.2290000E+03  0.2721524E-01  0.1578216E+00  0.1657159E+00
  0.2300000E+03  0.2733069E-01  0.1584581E+00  0.1649632E+00
  0.2310000E+03  0.2744610E-01  0.1590940E+00  0.1642112E+00
  0.2320000E+03  0.2756146E-01  0.1597291E+00  0.1634599E+00
  0.2330000E+03  0.2767677E-01  0.1603636E+00  0.1627094E+00
  0.2340000E+03  0.2779204E-01  0.1609973E+00  0.1619596E+00
  0.2350000E+03  0.2790725E-01  0.1616304E+00  0.1612106E+00
  0.2360000E+03  0.2802242E-01  0.1622627E+00  0.1604624E+00
  0.2370000E+03  0.2813753E-01  0.1628942E+00  0.1597149E+00
  0.2380000E+03  0.2825260E-01  0.1635251E+00  0.1589682E+00
  0.2390000E+03  0.2836761E-01  0.1641552E+00  0.1582223E+00
  0.2400000E+03  0.2848257E-01  0.1647846E+00  0.1574772E+00
  0.2410000E+03  0.2859749E-01  0.1654132E+00  0.1567329E+00
  0.2420000E+03  0.2871235E-01  0.1660410E+00  0.1559894E+00
  0.2430000E+03  0.2882715E-01  0.1666681E+00  0.1552466E+00
  0.2440000E+03  0.2894190E-01  0.1672944E+00  0.1545048E+00
  0.2450000E+03  0.2905660E-01  0.1679199E+00  0.1537637E+00
  0.2460000E+03  0.2917125E-01  0.1685447E+00  0.1530235E+00
  0.2470000E+03  0.2928584E-01  0.1691686E+00  0.1522841E+00
  0.2480000E+03  0.2940037E-01  0.1697918E+00  0.1515455E+00
  0.2490000E+03  0.2951485E-01  0.1704141E+00  0.1508079E+00
  0.2500000E+03  0.2962927E-01  0.1710357E+00  0.1500710E+00
  0.2510000E+03  0.2974363E-01  0.1716564E+00  0.1493351E+00
  0.2520000E+03  0.2985794E-01  0.1722762E+00  0.1486000E+00
  0.2530000E+03  0.2997218E-01  0.1728953E+00  0.1478658E+00
  0.2540000E+03  0.3008637E-01  0.1735135E+00  0.1471325E+00
  0.2550000E+03  0.3020050E-01  0.1741308E+00  0.1464002E+00
  0.2560000E+03  0.3031456E-01  0.1747473E+00  0.1456687E+00
  0.2570000E+03  0.3042857E-01  0.1753629E+00  0.1449381E+00
  0.2580000E+03  0.3054251E-01  0.1759777E+00  0.1442085E+00
  0.2590000E+03  0.3065640E-01  0.1765915E+00  0.1434798E+00
  0.2600000E+03  0.3077021E-01  0.1772045E+00  0.1427521E+00
  0.2610000E+03  0.3088397E-01  0.1778165E+00  0.1420253E+00
  0.2620000E+03  0.3099766E-01  0.1784277E+00  0.1412995E+00
  0.2630000E+03  0.3111128E-01  0.1790379E+00  0.1405747E+00
  0.2640000E+03  0.3122484E-01  0.1796472E+00  0.1398508E+00
  0.2650000E+03  0.3133833E-01  0.1802556E+00  0.1391280E+00
  0.2660000E+03  0.3145175E-01  0.1808630E+00  0.1384061E+00
  0.2670000E+03  0.3156511E-01  0.1814694E+00  0.1376853E+00
  0.2680000E+03  0.3167839E-01  0.1820749E+00  0.1369654E+00
  0.2690000E+03  0.3179161E-01  0.1826795E+00  0.1362467E+00
  0.2700000E+03  0.3190476E-01  0.1832830E+00  0.1355289E+00
  0.2710000E+03  0.3201783E-01  0.1838855E+00  0.1348123E+00
  0.2720000E+03  0.3213083E-01  0.1844871E+00  0.1340966E+00
  0.2730000E+03  0.3224376E-01  0.1850876E+00  0.1333821E+00
  0.2740000E+03  0.3235661E-01  0.1856871E+00  0.1326687E+00
  0.2750000E+03  0.3246939E-01  0.1862855E+00  0.1319563E+00
  0.2760000E+03  0.3258209E-01  0.1868830E+00  0.1312451E+00
  0.2770000E+03  0.3269471E-01  0.1874793E+00  0.1305349E+00
  0.2780000E+03  0.3280726E-01  0.1880746E+00  0.1298260E+00
  0.2790000E+03  0.3291973E-01  0.1886688E+00  0.1291181E+00
  0.2800000E+03  0.3303211E-01  0.1892619E+00  0.1284114E+00
  0.2810000E+03  0.3314442E-01  0.1898540E+00  0.1277059E+00
  0.2820000E+03  0.3325664E-01  0.1904449E+00  0.1270016E+00
  0.2830000E+03  0.3336879E-01  0.1910347E+00  0.1262985E+00
  0.2840000E+03  0.3348084E-01  0.1916233E+00  0.1255966E+00
  0.2850000E+03  0.3359282E-01  0.1922108E+00  0.1248958E+00
  0.2860000E+03  0.3370470E-01  0.1927972E+00  0.1241964E+00
  0.2870000E+03  0.3381650E-01  0.1933823E+00  0.1234981E+00
  0.2880000E+03  0.3392821E-01  0.1939663E+00  0.1228012E+00
  0.2890000E+03  0.3403983E-01  0.1945491E+00  0.1221055E+00
  0.2900000E+03  0.3415136E-01  0.1951307E+00  0.1214111E+00
  0.2910000E+03  0.3426280E-01  0.1957110E+00  0.1207180E+00
  0.2920000E+03  0.3437415E-01  0.1962901E+00  0.1200262E+00
  0.2930000E+03  0.3448540E-01  0.1968680E+00  0.1193357E+00
  0.2940000E+03  0.3459655E-01  0.1974446E+00  0.1186466E+00
  0.2950000E+03  0.3470761E-01  0.1980199E+00  0.1179589E+00
  0.2960000E+03  0.3481857E-01  0.1985939E+00  0.1172725E+00
  0.2970000E+03  0.3492943E-01  0.1991666E+00  0.1165875E+00
  0.2980000E+03  0.3504019E-01  0.1997380E+00  0.1159039E+00
  0.2990000E+03  0.3515085E-01  0.2003081E+00  0.1152218E+00
  0.3000000E+03  0.3526141E-01  0.2008768E+00  0.1145410E+00
  0.3010000E+03  0.3537186E-01  0.2014442E+00  0.1138618E+00
  0.3020000E+03  0.3548220E-01  0.2020102E+00  0.1131840E+00
  0.3030000E+03  0.3559243E-01  0.2025747E+00  0.1125076E+00
  0.3040000E+03  0.3570256E-01  0.2031379E+00  0.1118328E+00
  0.3050000E+03  0.3581258E-01  0.2036996E+00  0.1111595E+00
  0.3060000E+03  0.3592248E-01  0.2042600E+00  0.1104878E+00
  0.3070000E+03  0.3603227E-01  0.2048188E+00  0.1098176E+00
  0.3080000E+03  0.3614194E-01  0.2053762E+00  0.1091489E+00
  0.3090000E+03  0.3625150E-01  0.2059321E+00  0.1084819E+00
  0.3100000E+03  0.3636094E-01  0.2064864E+00  0.1078164E+00
  0.3110000E+03  0.3647026E-01  0.2070393E+00  0.1071526E+00
  0.3120000E+03  0.3657945E-01  0.2075906E+00  0.1064905E+00
  0.3130000E+03  0.3668852E-01  0.2081404E+00  0.1058300E+00
  0.3140000E+03  0.3679747E-01  0.2086885E+00  0.1051711E+00
  0.3150000E+03  0.3690629E-01  0.2092351E+00  0.1045140E+00
  0.3160000E+03  0.3701498E-01  0.2097801E+00  0.1038586E+00
  0.3170000E+03  0.3712354E-01  0.2103235E+00  0.1032049E+00
  0.3180000E+03  0.3723196E-01  0.2108652E+00  0.1025530E+00
  0.3190000E+03  0.3734025E-01  0.2114052E+00  0.1019029E+00
  0.3200000E+03  0.3744841E-01  0.2119436E+00  0.1012545E+00
  0.3210000E+03  0.3755642E-01  0.2124802E+00  0.1006080E+00
  0.3220000E+03  0.3766430E-01  0.2130152E+00  0.9996333E-01
  0.3230000E+03  0.3777203E-01  0.2135484E+00  0.9932051E-01
  0.3240000E+03  0.3787962E-01  0.2140798E+00  0.9867957E-01
  0.3250000E+03  0.3798706E-01  0.2146095E+00  0.9804053E-01
  0.3260000E+03  0.3809436E-01  0.2151374E+00  0.9740342E-01
  0.3270000E+03  0.3820150E-01  0.2156635E+00  0.9676825E-01
  0.3280000E+03  0.3830848E-01  0.2161877E+00  0.9613504E-01
  0.3290000E+03  0.3841532E-01  0.2167101E+00  0.9550382E-01
  0.3300000E+03  0.3852199E-01  0.2172306E+00  0.9487462E-01
  0.3310000E+03  0.3862851E-01  0.2177492E+00  0.9424744E-01
  0.3320000E+03  0.3873486E-01  0.2182659E+00  0.9362232E-01
  0.3330000E+03  0.3884105E-01  0.2187806E+00  0.9299927E-01
  0.3340000E+03  0.3894707E-01  0.2192934E+00  0.9237833E-01
  0.3350000E+03  0.3905292E-01  0.2198043E+00  0.9175950E-01
  0.3360000E+03  0.3915860E-01  0.2203131E+00  0.9114282E-01
  0.3370000E+03  0.3926411E-01  0.2208199E+00  0.9052831E-01
  0.3380000E+03  0.3936944E-01  0.2213247E+00  0.8991599E-01
  0.3390000E+03  0.3947459E-01  0.2218274E+00  0.8930589E-01
  0.3400000E+03  0.3957955E-01  0.2223280E+00  0.8869802E-01
  0.3410000E+03  0.3968433E-01  0.2228266E+00  0.8809242E-01
  0.3420000E+03  0.3978893E-01  0.2233230E+00  0.8748910E-01
  0.3430000E+03  0.3989334E-01  0.2238173E+00  0.8688809E-01
  0.3440000E+03  0.3999755E-01  0.2243094E+00  0.8628941E-01
  0.3450000E+03  0.4010157E-01  0.2247993E+00  0.8569309E-01
  0.3460000E+03  0.4020538E-01  0.2252870E+00  0.8509914E-01
  0.3470000E+03  0.4030900E-01  0.2257725E+00  0.8450761E-01
  0.3480000E+03  0.4041242E-01  0.2262557E+00  0.8391850E-01
  0.3490000E+03  0.4051562E-01  0.2267367E+00  0.8333184E-01
  0.3500000E+03  0.4061862E-01  0.2272154E+00  0.8274766E-01
  0.3510000E+03  0.4072141E-01  0.2276918E+00  0.8216598E-01
  0.3520000E+03  0.4082398E-01  0.2281658E+00  0.8158683E-01
  0.3530000E+03  0.4092633E-01  0.2286375E+00  0.8101022E-01
  0.3540000E+03  0.4102846E-01  0.2291068E+00  0.8043619E-01
  0.3550000E+03  0.4113036E-01  0.2295737E+00  0.7986475E-01
  0.3560000E+03  0.4123204E-01  0.2300382E+00  0.7929594E-01
  0.3570000E+03  0.4133348E-01  0.2305003E+00  0.7872976E-01
  0.3580000E+03  0.4143470E-01  0.2309599E+00  0.7816626E-01
  0.3590000E+03  0.4153567E-01  0.2314170E+00  0.7760544E-01
  0.3600000E+03  0.4163640E-01  0.2318716E+00  0.7704734E-01
  0.3610000E+03  0.4173690E-01  0.2323237E+00  0.7649198E-01
  0.3620000E+03  0.4183714E-01  0.2327733E+00  0.7593938E-01
  0.3630000E+03  0.4193713E-01  0.2332203E+00  0.7538956E-01
  0.3640000E+03  0.4203688E-01  0.2336648E+00  0.7484255E-01
  0.3650000E+03  0.4213636E-01  0.2341066E+00  0.7429837E-01
  0.3660000E+03  0.4223558E-01  0.2345458E+00  0.7375704E-01
  0.3670000E+03  0.4233455E-01  0.2349824E+00  0.7321858E-01
  0.3680000E+03  0.4243324E-01  0.2354164E+00  0.7268302E-01
  0.3690000E+03  0.4253167E-01  0.2358477E+00  0.7215038E-01
  0.3700000E+03  0.4262982E-01  0.2362763E+00  0.7162067E-01
  0.3710000E+03  0.4272769E-01  0.2367022E+00  0.7109392E-01
  0.3720000E+03  0.4282529E-01  0.2371253E+00  0.7057015E-01
  0.3730000E+03  0.4292260E-01  0.2375458E+00  0.7004938E-01
  0.3740000E+03  0.4301962E-01  0.2379635E+00  0.6953163E-01
  0.3750000E+03  0.4311636E-01  0.2383784E+00  0.6901692E-01
  0.3760000E+03  0.4321280E-01  0.2387905E+00  0.6850527E-01
  0.3770000E+03  0.4330894E-01  0.2391998E+00  0.6799670E-01
  0.3780000E+03  0.4340479E-01  0.2396064E+00  0.6749122E-01
  0.3790000E+03  0.4350033E-01  0.2400101E+00  0.6698885E-01
  0.3800000E+03  0.4359556E-01  0.2404109E+00  0.6648962E-01
  0.3810000E+03  0.4369048E-01  0.2408089E+00  0.6599353E-01
  0.3820000E+03  0.4378509E-01  0.2412041E+00  0.6550060E-01
  0.3830000E+03  0.4387938E-01  0.2415963E+00  0.6501086E-01
  0.3840000E+03  0.4397335E-01  0.2419857E+00  0.6452431E-01
  0.3850000E+03  0.4406700E-01  0.2423722E+00  0.6404097E-01
  0.3860000E+03  0.4416031E-01  0.2427557E+00  0.6356085E-01
  0.3870000E+03  0.4425330E-01  0.2431364E+00  0.6308397E-01
  0.3880000E+03  0.4434596E-01  0.2435141E+00  0.6261034E-01
  0.3890000E+03  0.4443827E-01  0.2438888E+00  0.6213998E-01
  0.3900000E+03  0.4453025E-01  0.2442607E+00  0.6167289E-01
  0.3910000E+03  0.4462188E-01  0.2446295E+00  0.6120909E-01
  0.3920000E+03  0.4471317E-01  0.2449954E+00  0.6074858E-01
  0.3930000E+03  0.4480411E-01  0.2453584E+00  0.6029138E-01
  0.3940000E+03  0.4489469E-01  0.2457184E+00  0.5983750E-01
  0.3950000E+03  0.4498492E-01  0.2460754E+00  0.5938694E-01
  0.3960000E+03  0.4507479E-01  0.2464294E+00  0.5893971E-01
  0.3970000E+03  0.4516429E-01  0.2467804E+00  0.5849583E-01
  0.3980000E+03  0.4525344E-01  0.2471285E+00  0.5805529E-01
  0.3990000E+03  0.4534221E-01  0.2474735E+00  0.5761811E-01
  0.4000000E+03  0.4543061E-01  0.2478156E+00  0.5718428E-01
  0.4010000E+03  0.4551864E-01  0.2481546E+00  0.5675381E-01
  0.4020000E+03  0.4560630E-01  0.2484907E+00  0.5632672E-01
  0.4030000E+03  0.4569357E-01  0.2488238E+00  0.5590299E-01
  0.4040000E+03  0.4578046E-01  0.2491539E+00  0.5548263E-01
  0.4050000E+03  0.4586697E-01  0.2494810E+00  0.5506565E-01