title = "dataset perm2"
variables = "x", "y", "z", "K_xx", "K_yy", "K_zz"
zone t = "K - initial [m/s]", i =   81, j =    1, k =    1,  f=point
  0.0000000E+00  0.0000000E+00  0.0000000E+00  0.0000000E+00  0.0000000E+00  0.1160000E-04
  0.0000000E+00  0.0000000E+00  0.1250000E-02  0.0000000E+00  0.0000000E+00  0.1160000E-04
  0.0000000E+00  0.0000000E+00  0.2500000E-02  0.0000000E+00  0.0000000E+00  0.1160000E-04
  0.0000000E+00  0.0000000E+00  0.3750000E-02  0.0000000E+00  0.0000000E+00  0.1160000E-04
  0.0000000E+00  0.0000000E+00  0.5000000E-02  0.0000000E+00  0.0000000E+00  0.1160000E-04
  0.0000000E+00  0.0000000E+00  0.6250000E-02  0.0000000E+00  0.0000000E+00  0.1160000E-04
  0.0000000E+00  0.0000000E+00  0.7500000E-02  0.0000000E+00  0.0000000E+00  0.1160000E-04
  0.0000000E+00  0.0000000E+00  0.8750000E-02  0.0000000E+00  0.0000000E+00  0.1160000E-04
  0.0000000E+00  0.0000000E+00  0.1000000E-01  0.0000000E+00  0.0000000E+00  0.1160000E-04
  0.0000000E+00  0.0000000E+00  0.1125000E-01  0.0000000E+00  0.0000000E+00  0.1160000E-04
  0.0000000E+00  0.0000000E+00  0.1250000E-01  0.0000000E+00  0.0000000E+00  0.1160000E-04
  0.0000000E+00  0.0000000E+00  0.1375000E-01  0.0000000E+00  0.0000000E+00  0.1160000E-04
  0.0000000E+00  0.0000000E+00  0.1500000E-01  0.0000000E+00  0.0000000E+00  0.1160000E-04
  0.0000000E+00  0.0000000E+00  0.1625000E-01  0.0000000E+00  0.0000000E+00  0.1160000E-04
  0.0000000E+00  0.0000000E+00  0.1750000E-01  0.0000000E+00  0.0000000E+00  0.1160000E-04
  0.0000000E+00  0.0000000E+00  0.1875000E-01  0.0000000E+00  0.0000000E+00  0.1160000E-04
  0.0000000E+00  0.0000000E+00  0.2000000E-01  0.0000000E+00  0.0000000E+00  0.1160000E-04
  0.0000000E+00  0.0000000E+00  0.2125000E-01  0.0000000E+00  0.0000000E+00  0.1160000E-04
  0.0000000E+00  0.0000000E+00  0.2250000E-01  0.0000000E+00  0.0000000E+00  0.1160000E-04
  0.0000000E+00  0.0000000E+00  0.2375000E-01  0.0000000E+00  0.0000000E+00  0.1160000E-04
  0.0000000E+00  0.0000000E+00  0.2500000E-01  0.0000000E+00  0.0000000E+00  0.1160000E-04
  0.0000000E+00  0.0000000E+00  0.2625000E-01  0.0000000E+00  0.0000000E+00  0.1160000E-04
  0.0000000E+00  0.0000000E+00  0.2750000E-01  0.0000000E+00  0.0000000E+00  0.1160000E-04
  0.0000000E+00  0.0000000E+00  0.2875000E-01  0.0000000E+00  0.0000000E+00  0.1160000E-04
  0.0000000E+00  0.0000000E+00  0.3000000E-01  0.0000000E+00  0.0000000E+00  0.1160000E-04
  0.0000000E+00  0.0000000E+00  0.3125000E-01  0.0000000E+00  0.0000000E+00  0.1160000E-04
  0.0000000E+00  0.0000000E+00  0.3250000E-01  0.0000000E+00  0.0000000E+00  0.1160000E-04
  0.0000000E+00  0.0000000E+00  0.3375000E-01  0.0000000E+00  0.0000000E+00  0.1160000E-04
  0.0000000E+00  0.0000000E+00  0.3500000E-01  0.0000000E+00  0.0000000E+00  0.1160000E-04
  0.0000000E+00  0.0000000E+00  0.3625000E-01  0.0000000E+00  0.0000000E+00  0.1160000E-04
  0.0000000E+00  0.0000000E+00  0.3750000E-01  0.0000000E+00  0.0000000E+00  0.1160000E-04
  0.0000000E+00  0.0000000E+00  0.3875000E-01  0.0000000E+00  0.0000000E+00  0.1160000E-04
  0.0000000E+00  0.0000000E+00  0.4000000E-01  0.0000000E+00  0.0000000E+00  0.1160000E-04
  0.0000000E+00  0.0000000E+00  0.4125000E-01  0.0000000E+00  0.0000000E+00  0.1160000E-04
  0.0000000E+00  0.0000000E+00  0.4250000E-01  0.0000000E+00  0.0000000E+00  0.1160000E-04
  0.0000000E+00  0.0000000E+00  0.4375000E-01  0.0000000E+00  0.0000000E+00  0.1160000E-04
  0.0000000E+00  0.0000000E+00  0.4500000E-01  0.0000000E+00  0.0000000E+00  0.1160000E-04
  0.0000000E+00  0.0000000E+00  0.4625000E-01  0.0000000E+00  0.0000000E+00  0.1160000E-04
  0.0000000E+00  0.0000000E+00  0.4750000E-01  0.0000000E+00  0.0000000E+00  0.1160000E-04
  0.0000000E+00  0.0000000E+00  0.4875000E-01  0.0000000E+00  0.0000000E+00  0.1160000E-04
  0.0000000E+00  0.0000000E+00  0.5000000E-01  0.0000000E+00  0.0000000E+00  0.1160000E-04
  0.0000000E+00  0.0000000E+00  0.5125000E-01  0.0000000E+00  0.0000000E+00  0.1160000E-04
  0.0000000E+00  0.0000000E+00  0.5250000E-01  0.0000000E+00  0.0000000E+00  0.1160000E-04
  0.0000000E+00  0.0000000E+00  0.5375000E-01  0.0000000E+00  0.0000000E+00  0.1160000E-04
  0.0000000E+00  0.0000000E+00  0.5500000E-01  0.0000000E+00  0.0000000E+00  0.1160000E-04
  0.0000000E+00  0.0000000E+00  0.5625000E-01  0.0000000E+00  0.0000000E+00  0.1160000E-04
  0.0000000E+00  0.0000000E+00  0.5750000E-01  0.0000000E+00  0.0000000E+00  0.1160000E-04
  0.0000000E+00  0.0000000E+00  0.5875000E-01  0.0000000E+00  0.0000000E+00  0.1160000E-04
  0.0000000E+00  0.0000000E+00  0.6000000E-01  0.0000000E+00  0.0000000E+00  0.1160000E-04
  0.0000000E+00  0.0000000E+00  0.6125000E-01  0.0000000E+00  0.0000000E+00  0.1160000E-04
  0.0000000E+00  0.0000000E+00  0.6250000E-01  0.0000000E+00  0.0000000E+00  0.1160000E-04
  0.0000000E+00  0.0000000E+00  0.6375000E-01  0.0000000E+00  0.0000000E+00  0.1160000E-04
  0.0000000E+00  0.0000000E+00  0.6500000E-01  0.0000000E+00  0.0000000E+00  0.1160000E-04
  0.0000000E+00  0.0000000E+00  0.6625000E-01  0.0000000E+00  0.0000000E+00  0.1160000E-04
  0.0000000E+00  0.0000000E+00  0.6750000E-01  0.0000000E+00  0.0000000E+00  0.1160000E-04
  0.0000000E+00  0.0000000E+00  0.6875000E-01  0.0000000E+00  0.0000000E+00  0.1160000E-04
  0.0000000E+00  0.0000000E+00  0.7000000E-01  0.0000000E+00  0.0000000E+00  0.1160000E-04
  0.0000000E+00  0.0000000E+00  0.7125000E-01  0.0000000E+00  0.0000000E+00  0.1160000E-04
  0.0000000E+00  0.0000000E+00  0.7250000E-01  0.0000000E+00  0.0000000E+00  0.1160000E-04
  0.0000000E+00  0.0000000E+00  0.7375000E-01  0.0000000E+00  0.0000000E+00  0.1160000E-04
  0.0000000E+00  0.0000000E+00  0.7500000E-01  0.0000000E+00  0.0000000E+00  0.1160000E-04
  0.0000000E+00  0.0000000E+00  0.7625000E-01  0.0000000E+00  0.0000000E+00  0.1160000E-04
  0.0000000E+00  0.0000000E+00  0.7750000E-01  0.0000000E+00  0.0000000E+00  0.1160000E-04
  0.0000000E+00  0.0000000E+00  0.7875000E-01  0.0000000E+00  0.0000000E+00  0.1160000E-04
  0.0000000E+00  0.0000000E+00  0.8000000E-01  0.0000000E+00  0.0000000E+00  0.1160000E-04
  0.0000000E+00  0.0000000E+00  0.8125000E-01  0.0000000E+00  0.0000000E+00  0.1160000E-04
  0.0000000E+00  0.0000000E+00  0.8250000E-01  0.0000000E+00  0.0000000E+00  0.1160000E-04
  0.0000000E+00  0.0000000E+00  0.8375000E-01  0.0000000E+00  0.0000000E+00  0.1160000E-04
  0.0000000E+00  0.0000000E+00  0.8500000E-01  0.0000000E+00  0.0000000E+00  0.1160000E-04
  0.0000000E+00  0.0000000E+00  0.8625000E-01  0.0000000E+00  0.0000000E+00  0.1160000E-04
  0.0000000E+00  0.0000000E+00  0.8750000E-01  0.0000000E+00  0.0000000E+00  0.1160000E-04
  0.0000000E+00  0.0000000E+00  0.8875000E-01  0.0000000E+00  0.0000000E+00  0.1160000E-04
  0.0000000E+00  0.0000000E+00  0.9000000E-01  0.0000000E+00  0.0000000E+00  0.1160000E-04
  0.0000000E+00  0.0000000E+00  0.9125000E-01  0.0000000E+00  0.0000000E+00  0.1160000E-04
  0.0000000E+00  0.0000000E+00  0.9250000E-01  0.0000000E+00  0.0000000E+00  0.1160000E-04
  0.0000000E+00  0.0000000E+00  0.9375000E-01  0.0000000E+00  0.0000000E+00  0.1160000E-04
  0.0000000E+00  0.0000000E+00  0.9500000E-01  0.0000000E+00  0.0000000E+00  0.1160000E-04
  0.0000000E+00  0.0000000E+00  0.9625000E-01  0.0000000E+00  0.0000000E+00  0.1160000E-04
  0.0000000E+00  0.0000000E+00  0.9750000E-01  0.0000000E+00  0.0000000E+00  0.1160000E-04
  0.0000000E+00  0.0000000E+00  0.9875000E-01  0.0000000E+00  0.0000000E+00  0.1160000E-04
  0.0000000E+00  0.0000000E+00  0.1000000E+00  0.0000000E+00  0.0000000E+00  0.1160000E-04
