title = "dataset perm2"
variables = "x", "y", "z","calcite","ferrihydrite","porosity"
zone t = "phi_i, T =  2.500E+02 years", i =   81, j =    1, k =    1,  f=point
   .0000000E+00   .0000000E+00   .0000000E+00   .2962927E-01   .1710357E+00   .1500710E+00
   .0000000E+00   .0000000E+00   .1250000E-02   .2734696E-01   .1210412E+00   .2021369E+00
   .0000000E+00   .0000000E+00   .2500000E-02   .2549484E-01   .8660545E-01   .2382846E+00
   .0000000E+00   .0000000E+00   .3750000E-02   .2396864E-01   .6256196E-01   .2637595E+00
   .0000000E+00   .0000000E+00   .5000000E-02   .2269012E-01   .4556948E-01   .2819653E+00
   .0000000E+00   .0000000E+00   .6250000E-02   .2160082E-01   .3343144E-01   .2951470E+00
   .0000000E+00   .0000000E+00   .7500000E-02   .2065717E-01   .2468013E-01   .3048096E+00
   .0000000E+00   .0000000E+00   .8750000E-02   .1982660E-01   .1831955E-01   .3119774E+00
   .0000000E+00   .0000000E+00   .1000000E-01   .1908479E-01   .1366413E-01   .3173575E+00
   .0000000E+00   .0000000E+00   .1125000E-01   .1841347E-01   .1023586E-01   .3214443E+00
   .0000000E+00   .0000000E+00   .1250000E-01   .1779888E-01   .7697683E-02   .3245874E+00
   .0000000E+00   .0000000E+00   .1375000E-01   .1723061E-01   .5809514E-02   .3270364E+00
   .0000000E+00   .0000000E+00   .1500000E-01   .1670071E-01   .4398869E-02   .3289711E+00
   .0000000E+00   .0000000E+00   .1625000E-01   .1620310E-01   .3340882E-02   .3305219E+00
   .0000000E+00   .0000000E+00   .1750000E-01   .1573307E-01   .2544561E-02   .3317844E+00
   .0000000E+00   .0000000E+00   .1875000E-01   .1528695E-01   .1943210E-02   .3328286E+00
   .0000000E+00   .0000000E+00   .2000000E-01   .1486187E-01   .1487690E-02   .3337064E+00
   .0000000E+00   .0000000E+00   .2125000E-01   .1445551E-01   .1141633E-02   .3344564E+00
   .0000000E+00   .0000000E+00   .2250000E-01   .1406604E-01   .8780062E-03   .3351073E+00
   .0000000E+00   .0000000E+00   .2375000E-01   .1369195E-01   .6766445E-03   .3356808E+00
   .0000000E+00   .0000000E+00   .2500000E-01   .1333201E-01   .5224509E-03   .3361931E+00
   .0000000E+00   .0000000E+00   .2625000E-01   .1298517E-01   .4040864E-03   .3366567E+00
   .0000000E+00   .0000000E+00   .2750000E-01   .1265056E-01   .3130095E-03   .3370808E+00
   .0000000E+00   .0000000E+00   .2875000E-01   .1232742E-01   .2427672E-03   .3374728E+00
   .0000000E+00   .0000000E+00   .3000000E-01   .1201510E-01   .1884707E-03   .3378380E+00
   .0000000E+00   .0000000E+00   .3125000E-01   .1171302E-01   .1464077E-03   .3381809E+00
   .0000000E+00   .0000000E+00   .3250000E-01   .1142066E-01   .1137506E-03   .3385047E+00
   .0000000E+00   .0000000E+00   .3375000E-01   .1113757E-01   .8834212E-04   .3388120E+00
   .0000000E+00   .0000000E+00   .3500000E-01   .1086332E-01   .6853079E-04   .3391049E+00
   .0000000E+00   .0000000E+00   .3625000E-01   .1059752E-01   .5305063E-04   .3393851E+00
   .0000000E+00   .0000000E+00   .3750000E-01   .1033983E-01   .4092751E-04   .3396539E+00
   .0000000E+00   .0000000E+00   .3875000E-01   .1008990E-01   .3141079E-04   .3399124E+00
   .0000000E+00   .0000000E+00   .4000000E-01   .9847442E-02   .2391899E-04   .3401614E+00
   .0000000E+00   .0000000E+00   .4125000E-01   .9612150E-02   .1800044E-04   .3404017E+00
   .0000000E+00   .0000000E+00   .4250000E-01   .9383759E-02   .1330075E-04   .3406339E+00
   .0000000E+00   .0000000E+00   .4375000E-01   .9162009E-02   .9539196E-05   .3408585E+00
   .0000000E+00   .0000000E+00   .4500000E-01   .8946656E-02   .6487772E-05   .3410761E+00
   .0000000E+00   .0000000E+00   .4625000E-01   .8737466E-02   .3954893E-05   .3412870E+00
   .0000000E+00   .0000000E+00   .4750000E-01   .8534216E-02   .1769001E-05   .3414917E+00
   .0000000E+00   .0000000E+00   .4875000E-01   .8336693E-02   .1000000E-09   .3416902E+00
   .0000000E+00   .0000000E+00   .5000000E-01   .8144689E-02   .1000000E-09   .3418815E+00
   .0000000E+00   .0000000E+00   .5125000E-01   .7958019E-02   .1000000E-09   .3420675E+00
   .0000000E+00   .0000000E+00   .5250000E-01   .7776506E-02   .1000000E-09   .3422483E+00
   .0000000E+00   .0000000E+00   .5375000E-01   .7599975E-02   .1000000E-09   .3424242E+00
   .0000000E+00   .0000000E+00   .5500000E-01   .7428262E-02   .1000000E-09   .3425952E+00
   .0000000E+00   .0000000E+00   .5625000E-01   .7261209E-02   .1000000E-09   .3427617E+00
   .0000000E+00   .0000000E+00   .5750000E-01   .7098663E-02   .1000000E-09   .3429236E+00
   .0000000E+00   .0000000E+00   .5875000E-01   .6940479E-02   .1000000E-09   .3430812E+00
   .0000000E+00   .0000000E+00   .6000000E-01   .6786516E-02   .1000000E-09   .3432346E+00
   .0000000E+00   .0000000E+00   .6125000E-01   .6636640E-02   .1000000E-09   .3433840E+00
   .0000000E+00   .0000000E+00   .6250000E-01   .6490722E-02   .1000000E-09   .3435293E+00
   .0000000E+00   .0000000E+00   .6375000E-01   .6348639E-02   .1000000E-09   .3436709E+00
   .0000000E+00   .0000000E+00   .6500000E-01   .6210274E-02   .1000000E-09   .3438088E+00
   .0000000E+00   .0000000E+00   .6625000E-01   .6075515E-02   .1000000E-09   .3439431E+00
   .0000000E+00   .0000000E+00   .6750000E-01   .5944253E-02   .1000000E-09   .3440739E+00
   .0000000E+00   .0000000E+00   .6875000E-01   .5816389E-02   .1000000E-09   .3442013E+00
   .0000000E+00   .0000000E+00   .7000000E-01   .5691828E-02   .1000000E-09   .3443254E+00
   .0000000E+00   .0000000E+00   .7125000E-01   .5570479E-02   .1000000E-09   .3444463E+00
   .0000000E+00   .0000000E+00   .7250000E-01   .5452261E-02   .1000000E-09   .3445641E+00
   .0000000E+00   .0000000E+00   .7375000E-01   .5337098E-02   .1000000E-09   .3446789E+00
   .0000000E+00   .0000000E+00   .7500000E-01   .5224925E-02   .1000000E-09   .3447906E+00
   .0000000E+00   .0000000E+00   .7625000E-01   .5115681E-02   .1000000E-09   .3448995E+00
   .0000000E+00   .0000000E+00   .7750000E-01   .5009322E-02   .1000000E-09   .3450055E+00
   .0000000E+00   .0000000E+00   .7875000E-01   .4905814E-02   .1000000E-09   .3451086E+00
   .0000000E+00   .0000000E+00   .8000000E-01   .4805138E-02   .1000000E-09   .3452090E+00
   .0000000E+00   .0000000E+00   .8125000E-01   .4707294E-02   .1000000E-09   .3453065E+00
   .0000000E+00   .0000000E+00   .8250000E-01   .4612308E-02   .1000000E-09   .3454011E+00
   .0000000E+00   .0000000E+00   .8375000E-01   .4520232E-02   .1000000E-09   .3454929E+00
   .0000000E+00   .0000000E+00   .8500000E-01   .4431153E-02   .1000000E-09   .3455817E+00
   .0000000E+00   .0000000E+00   .8625000E-01   .4345203E-02   .1000000E-09   .3456673E+00
   .0000000E+00   .0000000E+00   .8750000E-01   .4262573E-02   .1000000E-09   .3457497E+00
   .0000000E+00   .0000000E+00   .8875000E-01   .4183522E-02   .1000000E-09   .3458285E+00
   .0000000E+00   .0000000E+00   .9000000E-01   .4108399E-02   .1000000E-09   .3459033E+00
   .0000000E+00   .0000000E+00   .9125000E-01   .4037667E-02   .1000000E-09   .3459738E+00
   .0000000E+00   .0000000E+00   .9250000E-01   .3971931E-02   .1000000E-09   .3460393E+00
   .0000000E+00   .0000000E+00   .9375000E-01   .3911984E-02   .1000000E-09   .3460991E+00
   .0000000E+00   .0000000E+00   .9500000E-01   .3858849E-02   .1000000E-09   .3461520E+00
   .0000000E+00   .0000000E+00   .9625000E-01   .3813851E-02   .1000000E-09   .3461969E+00
   .0000000E+00   .0000000E+00   .9750000E-01   .3778697E-02   .1000000E-09   .3462319E+00
   .0000000E+00   .0000000E+00   .9875000E-01   .3755585E-02   .1000000E-09   .3462550E+00
   .0000000E+00   .0000000E+00   .1000000E+00   .3747349E-02   .1000000E-09   .3462632E+00
