title = "dataset perm2"
variables = "x", "y", "z", "h_w", "p_w", "s_w", "theta_a"
zone t = "Flow variables, solution time =  5.000E+02 years       " i =   81, j =    1, k =    1,  f=point
   .0000000E+00   .0000000E+00   .0000000E+00   .3500000E-03   .3500000E-03   .1000000E+01   .2905548E-01
   .0000000E+00   .0000000E+00   .1250000E-02   .2158782E-04  -.1228412E-02   .1000000E+01   .1267413E+00
   .0000000E+00   .0000000E+00   .2500000E-02   .1756677E-04  -.2482433E-02   .1000000E+01   .1872627E+00
   .0000000E+00   .0000000E+00   .3750000E-02   .1628318E-04  -.3733717E-02   .1000000E+01   .2269919E+00
   .0000000E+00   .0000000E+00   .5000000E-02   .1556371E-04  -.4984436E-02   .1000000E+01   .2540658E+00
   .0000000E+00   .0000000E+00   .6250000E-02   .1505686E-04  -.6234943E-02   .1000000E+01   .2730320E+00
   .0000000E+00   .0000000E+00   .7500000E-02   .1465422E-04  -.7485346E-02   .1000000E+01   .2866201E+00
   .0000000E+00   .0000000E+00   .8750000E-02   .1431074E-04  -.8735689E-02   .1000000E+01   .2965477E+00
   .0000000E+00   .0000000E+00   .1000000E-01   .1400412E-04  -.9985996E-02   .1000000E+01   .3039332E+00
   .0000000E+00   .0000000E+00   .1125000E-01   .1372202E-04  -.1123628E-01   .1000000E+01   .3095238E+00
   .0000000E+00   .0000000E+00   .1250000E-01   .1345706E-04  -.1248654E-01   .1000000E+01   .3138290E+00
   .0000000E+00   .0000000E+00   .1375000E-01   .1320453E-04  -.1373680E-01   .1000000E+01   .3172020E+00
   .0000000E+00   .0000000E+00   .1500000E-01   .1296133E-04  -.1498704E-01   .1000000E+01   .3198910E+00
   .0000000E+00   .0000000E+00   .1625000E-01   .1272534E-04  -.1623727E-01   .1000000E+01   .3220728E+00
   .0000000E+00   .0000000E+00   .1750000E-01   .1249505E-04  -.1748750E-01   .1000000E+01   .3238742E+00
   .0000000E+00   .0000000E+00   .1875000E-01   .1226938E-04  -.1873773E-01   .1000000E+01   .3253874E+00
   .0000000E+00   .0000000E+00   .2000000E-01   .1204755E-04  -.1998795E-01   .1000000E+01   .3266797E+00
   .0000000E+00   .0000000E+00   .2125000E-01   .1182894E-04  -.2123817E-01   .1000000E+01   .3278010E+00
   .0000000E+00   .0000000E+00   .2250000E-01   .1161311E-04  -.2248839E-01   .1000000E+01   .3287880E+00
   .0000000E+00   .0000000E+00   .2375000E-01   .1139971E-04  -.2373860E-01   .1000000E+01   .3296686E+00
   .0000000E+00   .0000000E+00   .2500000E-01   .1118846E-04  -.2498881E-01   .1000000E+01   .3304635E+00
   .0000000E+00   .0000000E+00   .2625000E-01   .1097914E-04  -.2623902E-01   .1000000E+01   .3311886E+00
   .0000000E+00   .0000000E+00   .2750000E-01   .1077156E-04  -.2748923E-01   .1000000E+01   .3318561E+00
   .0000000E+00   .0000000E+00   .2875000E-01   .1056559E-04  -.2873943E-01   .1000000E+01   .3324753E+00
   .0000000E+00   .0000000E+00   .3000000E-01   .1036109E-04  -.2998964E-01   .1000000E+01   .3330535E+00
   .0000000E+00   .0000000E+00   .3125000E-01   .1015797E-04  -.3123984E-01   .1000000E+01   .3335965E+00
   .0000000E+00   .0000000E+00   .3250000E-01   .9956129E-05  -.3249004E-01   .1000000E+01   .3341088E+00
   .0000000E+00   .0000000E+00   .3375000E-01   .9755491E-05  -.3374024E-01   .1000000E+01   .3345941E+00
   .0000000E+00   .0000000E+00   .3500000E-01   .9555985E-05  -.3499044E-01   .1000000E+01   .3350552E+00
   .0000000E+00   .0000000E+00   .3625000E-01   .9357552E-05  -.3624064E-01   .1000000E+01   .3354948E+00
   .0000000E+00   .0000000E+00   .3750000E-01   .9160135E-05  -.3749084E-01   .1000000E+01   .3359147E+00
   .0000000E+00   .0000000E+00   .3875000E-01   .8963685E-05  -.3874104E-01   .1000000E+01   .3363166E+00
   .0000000E+00   .0000000E+00   .4000000E-01   .8768155E-05  -.3999123E-01   .1000000E+01   .3367020E+00
   .0000000E+00   .0000000E+00   .4125000E-01   .8573505E-05  -.4124143E-01   .1000000E+01   .3370721E+00
   .0000000E+00   .0000000E+00   .4250000E-01   .8379694E-05  -.4249162E-01   .1000000E+01   .3374279E+00
   .0000000E+00   .0000000E+00   .4375000E-01   .8186689E-05  -.4374181E-01   .1000000E+01   .3377706E+00
   .0000000E+00   .0000000E+00   .4500000E-01   .7994454E-05  -.4499201E-01   .1000000E+01   .3381010E+00
   .0000000E+00   .0000000E+00   .4625000E-01   .7802960E-05  -.4624220E-01   .1000000E+01   .3384195E+00
   .0000000E+00   .0000000E+00   .4750000E-01   .7612175E-05  -.4749239E-01   .1000000E+01   .3387243E+00
   .0000000E+00   .0000000E+00   .4875000E-01   .7422067E-05  -.4874258E-01   .1000000E+01   .3390189E+00
   .0000000E+00   .0000000E+00   .5000000E-01   .7232613E-05  -.4999277E-01   .1000000E+01   .3393038E+00
   .0000000E+00   .0000000E+00   .5125000E-01   .7043787E-05  -.5124296E-01   .1000000E+01   .3395793E+00
   .0000000E+00   .0000000E+00   .5250000E-01   .6855568E-05  -.5249314E-01   .1000000E+01   .3398459E+00
   .0000000E+00   .0000000E+00   .5375000E-01   .6667933E-05  -.5374333E-01   .1000000E+01   .3401039E+00
   .0000000E+00   .0000000E+00   .5500000E-01   .6480863E-05  -.5499352E-01   .1000000E+01   .3403537E+00
   .0000000E+00   .0000000E+00   .5625000E-01   .6294336E-05  -.5624371E-01   .1000000E+01   .3405956E+00
   .0000000E+00   .0000000E+00   .5750000E-01   .6108334E-05  -.5749389E-01   .1000000E+01   .3408300E+00
   .0000000E+00   .0000000E+00   .5875000E-01   .5922840E-05  -.5874408E-01   .1000000E+01   .3410571E+00
   .0000000E+00   .0000000E+00   .6000000E-01   .5737835E-05  -.5999426E-01   .1000000E+01   .3412772E+00
   .0000000E+00   .0000000E+00   .6125000E-01   .5553305E-05  -.6124445E-01   .1000000E+01   .3414906E+00
   .0000000E+00   .0000000E+00   .6250000E-01   .5369232E-05  -.6249463E-01   .1000000E+01   .3416975E+00
   .0000000E+00   .0000000E+00   .6375000E-01   .5185602E-05  -.6374481E-01   .1000000E+01   .3418982E+00
   .0000000E+00   .0000000E+00   .6500000E-01   .5002401E-05  -.6499500E-01   .1000000E+01   .3420930E+00
   .0000000E+00   .0000000E+00   .6625000E-01   .4819614E-05  -.6624518E-01   .1000000E+01   .3422820E+00
   .0000000E+00   .0000000E+00   .6750000E-01   .4637229E-05  -.6749536E-01   .1000000E+01   .3424654E+00
   .0000000E+00   .0000000E+00   .6875000E-01   .4455232E-05  -.6874554E-01   .1000000E+01   .3426435E+00
   .0000000E+00   .0000000E+00   .7000000E-01   .4273612E-05  -.6999573E-01   .1000000E+01   .3428163E+00
   .0000000E+00   .0000000E+00   .7125000E-01   .4092356E-05  -.7124591E-01   .1000000E+01   .3429842E+00
   .0000000E+00   .0000000E+00   .7250000E-01   .3911454E-05  -.7249609E-01   .1000000E+01   .3431472E+00
   .0000000E+00   .0000000E+00   .7375000E-01   .3730893E-05  -.7374627E-01   .1000000E+01   .3433055E+00
   .0000000E+00   .0000000E+00   .7500000E-01   .3550665E-05  -.7499645E-01   .1000000E+01   .3434593E+00
   .0000000E+00   .0000000E+00   .7625000E-01   .3370758E-05  -.7624663E-01   .1000000E+01   .3436086E+00
   .0000000E+00   .0000000E+00   .7750000E-01   .3191162E-05  -.7749681E-01   .1000000E+01   .3437535E+00
   .0000000E+00   .0000000E+00   .7875000E-01   .3011868E-05  -.7874699E-01   .1000000E+01   .3438941E+00
   .0000000E+00   .0000000E+00   .8000000E-01   .2832866E-05  -.7999717E-01   .1000000E+01   .3440306E+00
   .0000000E+00   .0000000E+00   .8125000E-01   .2654147E-05  -.8124735E-01   .1000000E+01   .3441628E+00
   .0000000E+00   .0000000E+00   .8250000E-01   .2475702E-05  -.8249752E-01   .1000000E+01   .3442909E+00
   .0000000E+00   .0000000E+00   .8375000E-01   .2297521E-05  -.8374770E-01   .1000000E+01   .3444148E+00
   .0000000E+00   .0000000E+00   .8500000E-01   .2119594E-05  -.8499788E-01   .1000000E+01   .3445343E+00
   .0000000E+00   .0000000E+00   .8625000E-01   .1941913E-05  -.8624806E-01   .1000000E+01   .3446494E+00
   .0000000E+00   .0000000E+00   .8750000E-01   .1764468E-05  -.8749824E-01   .1000000E+01   .3447598E+00
   .0000000E+00   .0000000E+00   .8875000E-01   .1587247E-05  -.8874841E-01   .1000000E+01   .3448653E+00
   .0000000E+00   .0000000E+00   .9000000E-01   .1410240E-05  -.8999859E-01   .1000000E+01   .3449653E+00
   .0000000E+00   .0000000E+00   .9125000E-01   .1233435E-05  -.9124877E-01   .1000000E+01   .3450594E+00
   .0000000E+00   .0000000E+00   .9250000E-01   .1056818E-05  -.9249894E-01   .1000000E+01   .3451467E+00
   .0000000E+00   .0000000E+00   .9375000E-01   .8803743E-06  -.9374912E-01   .1000000E+01   .3452262E+00
   .0000000E+00   .0000000E+00   .9500000E-01   .7040857E-06  -.9499930E-01   .1000000E+01   .3452966E+00
   .0000000E+00   .0000000E+00   .9625000E-01   .5279315E-06  -.9624947E-01   .1000000E+01   .3453561E+00
   .0000000E+00   .0000000E+00   .9750000E-01   .3518870E-06  -.9749965E-01   .1000000E+01   .3454026E+00
   .0000000E+00   .0000000E+00   .9875000E-01   .1759221E-06  -.9874982E-01   .1000000E+01   .3454332E+00
   .0000000E+00   .0000000E+00   .1000000E+00   .0000000E+00  -.1000000E+00   .1000000E+01   .3454441E+00
