title = "dataset perm2"
variables = "x", "y", "z", "h_w", "p_w", "s_w", "theta_a"
zone t = "Flow variables, solution time =  1.000E+02 years       " i =   81, j =    1, k =    1,  f=point
   .0000000E+00   .0000000E+00   .0000000E+00   .3500000E-03   .3500000E-03   .1000000E+01   .2671241E+00
   .0000000E+00   .0000000E+00   .1250000E-02   .3400489E-03  -.9099511E-03   .1000000E+01   .2878031E+00
   .0000000E+00   .0000000E+00   .2500000E-02   .3322283E-03  -.2167772E-02   .1000000E+01   .3024353E+00
   .0000000E+00   .0000000E+00   .3750000E-02   .3255891E-03  -.3424411E-02   .1000000E+01   .3129259E+00
   .0000000E+00   .0000000E+00   .5000000E-02   .3196688E-03  -.4680331E-02   .1000000E+01   .3205406E+00
   .0000000E+00   .0000000E+00   .6250000E-02   .3142142E-03  -.5935786E-02   .1000000E+01   .3261321E+00
   .0000000E+00   .0000000E+00   .7500000E-02   .3090753E-03  -.7190925E-02   .1000000E+01   .3302831E+00
   .0000000E+00   .0000000E+00   .8750000E-02   .3041578E-03  -.8445842E-02   .1000000E+01   .3333971E+00
   .0000000E+00   .0000000E+00   .1000000E-01   .2993996E-03  -.9700600E-02   .1000000E+01   .3357575E+00
   .0000000E+00   .0000000E+00   .1125000E-01   .2947587E-03  -.1095524E-01   .1000000E+01   .3375651E+00
   .0000000E+00   .0000000E+00   .1250000E-01   .2902057E-03  -.1220979E-01   .1000000E+01   .3389642E+00
   .0000000E+00   .0000000E+00   .1375000E-01   .2857197E-03  -.1346428E-01   .1000000E+01   .3400592E+00
   .0000000E+00   .0000000E+00   .1500000E-01   .2812856E-03  -.1471871E-01   .1000000E+01   .3409264E+00
   .0000000E+00   .0000000E+00   .1625000E-01   .2768923E-03  -.1597311E-01   .1000000E+01   .3416216E+00
   .0000000E+00   .0000000E+00   .1750000E-01   .2725316E-03  -.1722747E-01   .1000000E+01   .3421865E+00
   .0000000E+00   .0000000E+00   .1875000E-01   .2681974E-03  -.1848180E-01   .1000000E+01   .3426519E+00
   .0000000E+00   .0000000E+00   .2000000E-01   .2638850E-03  -.1973611E-01   .1000000E+01   .3430409E+00
   .0000000E+00   .0000000E+00   .2125000E-01   .2595908E-03  -.2099041E-01   .1000000E+01   .3433708E+00
   .0000000E+00   .0000000E+00   .2250000E-01   .2553122E-03  -.2224469E-01   .1000000E+01   .3436548E+00
   .0000000E+00   .0000000E+00   .2375000E-01   .2510469E-03  -.2349895E-01   .1000000E+01   .3439028E+00
   .0000000E+00   .0000000E+00   .2500000E-01   .2467933E-03  -.2475321E-01   .1000000E+01   .3441224E+00
   .0000000E+00   .0000000E+00   .2625000E-01   .2425502E-03  -.2600745E-01   .1000000E+01   .3443193E+00
   .0000000E+00   .0000000E+00   .2750000E-01   .2383164E-03  -.2726168E-01   .1000000E+01   .3444980E+00
   .0000000E+00   .0000000E+00   .2875000E-01   .2340912E-03  -.2851591E-01   .1000000E+01   .3446619E+00
   .0000000E+00   .0000000E+00   .3000000E-01   .2298737E-03  -.2977013E-01   .1000000E+01   .3448137E+00
   .0000000E+00   .0000000E+00   .3125000E-01   .2256636E-03  -.3102434E-01   .1000000E+01   .3449553E+00
   .0000000E+00   .0000000E+00   .3250000E-01   .2214602E-03  -.3227854E-01   .1000000E+01   .3450884E+00
   .0000000E+00   .0000000E+00   .3375000E-01   .2172632E-03  -.3353274E-01   .1000000E+01   .3452143E+00
   .0000000E+00   .0000000E+00   .3500000E-01   .2130723E-03  -.3478693E-01   .1000000E+01   .3453339E+00
   .0000000E+00   .0000000E+00   .3625000E-01   .2088871E-03  -.3604111E-01   .1000000E+01   .3454481E+00
   .0000000E+00   .0000000E+00   .3750000E-01   .2047074E-03  -.3729529E-01   .1000000E+01   .3455574E+00
   .0000000E+00   .0000000E+00   .3875000E-01   .2005330E-03  -.3854947E-01   .1000000E+01   .3456625E+00
   .0000000E+00   .0000000E+00   .4000000E-01   .1963636E-03  -.3980364E-01   .1000000E+01   .3457636E+00
   .0000000E+00   .0000000E+00   .4125000E-01   .1921990E-03  -.4105780E-01   .1000000E+01   .3458612E+00
   .0000000E+00   .0000000E+00   .4250000E-01   .1880392E-03  -.4231196E-01   .1000000E+01   .3459555E+00
   .0000000E+00   .0000000E+00   .4375000E-01   .1838838E-03  -.4356612E-01   .1000000E+01   .3460467E+00
   .0000000E+00   .0000000E+00   .4500000E-01   .1797329E-03  -.4482027E-01   .1000000E+01   .3461352E+00
   .0000000E+00   .0000000E+00   .4625000E-01   .1755862E-03  -.4607441E-01   .1000000E+01   .3462209E+00
   .0000000E+00   .0000000E+00   .4750000E-01   .1714436E-03  -.4732856E-01   .1000000E+01   .3463042E+00
   .0000000E+00   .0000000E+00   .4875000E-01   .1673049E-03  -.4858270E-01   .1000000E+01   .3463851E+00
   .0000000E+00   .0000000E+00   .5000000E-01   .1631702E-03  -.4983683E-01   .1000000E+01   .3464638E+00
   .0000000E+00   .0000000E+00   .5125000E-01   .1590392E-03  -.5109096E-01   .1000000E+01   .3465403E+00
   .0000000E+00   .0000000E+00   .5250000E-01   .1549118E-03  -.5234509E-01   .1000000E+01   .3466142E+00
   .0000000E+00   .0000000E+00   .5375000E-01   .1507880E-03  -.5359921E-01   .1000000E+01   .3466862E+00
   .0000000E+00   .0000000E+00   .5500000E-01   .1466676E-03  -.5485333E-01   .1000000E+01   .3467563E+00
   .0000000E+00   .0000000E+00   .5625000E-01   .1425505E-03  -.5610745E-01   .1000000E+01   .3468247E+00
   .0000000E+00   .0000000E+00   .5750000E-01   .1384367E-03  -.5736156E-01   .1000000E+01   .3468913E+00
   .0000000E+00   .0000000E+00   .5875000E-01   .1343261E-03  -.5861567E-01   .1000000E+01   .3469562E+00
   .0000000E+00   .0000000E+00   .6000000E-01   .1302185E-03  -.5986978E-01   .1000000E+01   .3470195E+00
   .0000000E+00   .0000000E+00   .6125000E-01   .1261140E-03  -.6112389E-01   .1000000E+01   .3470813E+00
   .0000000E+00   .0000000E+00   .6250000E-01   .1220124E-03  -.6237799E-01   .1000000E+01   .3471415E+00
   .0000000E+00   .0000000E+00   .6375000E-01   .1179136E-03  -.6363209E-01   .1000000E+01   .3472002E+00
   .0000000E+00   .0000000E+00   .6500000E-01   .1138176E-03  -.6488618E-01   .1000000E+01   .3472574E+00
   .0000000E+00   .0000000E+00   .6625000E-01   .1097243E-03  -.6614028E-01   .1000000E+01   .3473133E+00
   .0000000E+00   .0000000E+00   .6750000E-01   .1056337E-03  -.6739437E-01   .1000000E+01   .3473678E+00
   .0000000E+00   .0000000E+00   .6875000E-01   .1015456E-03  -.6864845E-01   .1000000E+01   .3474209E+00
   .0000000E+00   .0000000E+00   .7000000E-01   .9746008E-04  -.6990254E-01   .1000000E+01   .3474728E+00
   .0000000E+00   .0000000E+00   .7125000E-01   .9337698E-04  -.7115662E-01   .1000000E+01   .3475234E+00
   .0000000E+00   .0000000E+00   .7250000E-01   .8929626E-04  -.7241070E-01   .1000000E+01   .3475727E+00
   .0000000E+00   .0000000E+00   .7375000E-01   .8521787E-04  -.7366478E-01   .1000000E+01   .3476209E+00
   .0000000E+00   .0000000E+00   .7500000E-01   .8114175E-04  -.7491886E-01   .1000000E+01   .3476678E+00
   .0000000E+00   .0000000E+00   .7625000E-01   .7706784E-04  -.7617293E-01   .1000000E+01   .3477136E+00
   .0000000E+00   .0000000E+00   .7750000E-01   .7299608E-04  -.7742700E-01   .1000000E+01   .3477583E+00
   .0000000E+00   .0000000E+00   .7875000E-01   .6892642E-04  -.7868107E-01   .1000000E+01   .3478018E+00
   .0000000E+00   .0000000E+00   .8000000E-01   .6485880E-04  -.7993514E-01   .1000000E+01   .3478442E+00
   .0000000E+00   .0000000E+00   .8125000E-01   .6079317E-04  -.8118921E-01   .1000000E+01   .3478854E+00
   .0000000E+00   .0000000E+00   .8250000E-01   .5672948E-04  -.8244327E-01   .1000000E+01   .3479255E+00
   .0000000E+00   .0000000E+00   .8375000E-01   .5266766E-04  -.8369733E-01   .1000000E+01   .3479644E+00
   .0000000E+00   .0000000E+00   .8500000E-01   .4860765E-04  -.8495139E-01   .1000000E+01   .3480021E+00
   .0000000E+00   .0000000E+00   .8625000E-01   .4454941E-04  -.8620545E-01   .1000000E+01   .3480385E+00
   .0000000E+00   .0000000E+00   .8750000E-01   .4049285E-04  -.8745951E-01   .1000000E+01   .3480735E+00
   .0000000E+00   .0000000E+00   .8875000E-01   .3643792E-04  -.8871356E-01   .1000000E+01   .3481070E+00
   .0000000E+00   .0000000E+00   .9000000E-01   .3238454E-04  -.8996762E-01   .1000000E+01   .3481389E+00
   .0000000E+00   .0000000E+00   .9125000E-01   .2833263E-04  -.9122167E-01   .1000000E+01   .3481690E+00
   .0000000E+00   .0000000E+00   .9250000E-01   .2428209E-04  -.9247572E-01   .1000000E+01   .3481969E+00
   .0000000E+00   .0000000E+00   .9375000E-01   .2023282E-04  -.9372977E-01   .1000000E+01   .3482224E+00
   .0000000E+00   .0000000E+00   .9500000E-01   .1618468E-04  -.9498382E-01   .1000000E+01   .3482450E+00
   .0000000E+00   .0000000E+00   .9625000E-01   .1213753E-04  -.9623786E-01   .1000000E+01   .3482642E+00
   .0000000E+00   .0000000E+00   .9750000E-01   .8091193E-05  -.9749191E-01   .1000000E+01   .3482792E+00
   .0000000E+00   .0000000E+00   .9875000E-01   .4045439E-05  -.9874595E-01   .1000000E+01   .3482890E+00
   .0000000E+00   .0000000E+00   .1000000E+00   .0000000E+00  -.1000000E+00   .1000000E+01   .3482925E+00
