title = "dataset perm2"
variables = "x", "y", "z","calcite","ferrihydrite","porosity"
zone t = "phi_i, T =  5.000E+02 years", i =   81, j =    1, k =    1,  f=point
   .0000000E+00   .0000000E+00   .0000000E+00   .5221533E-01   .2688906E+00   .2905548E-01
   .0000000E+00   .0000000E+00   .1250000E-02   .4677704E-01   .1765421E+00   .1267413E+00
   .0000000E+00   .0000000E+00   .2500000E-02   .4269937E-01   .1200700E+00   .1872627E+00
   .0000000E+00   .0000000E+00   .3750000E-02   .3948473E-01   .8354450E-01   .2269919E+00
   .0000000E+00   .0000000E+00   .5000000E-02   .3685950E-01   .5909014E-01   .2540658E+00
   .0000000E+00   .0000000E+00   .6250000E-02   .3465712E-01   .4232265E-01   .2730320E+00
   .0000000E+00   .0000000E+00   .7500000E-02   .3276890E-01   .3062024E-01   .2866201E+00
   .0000000E+00   .0000000E+00   .8750000E-02   .3112053E-01   .2233910E-01   .2965477E+00
   .0000000E+00   .0000000E+00   .1000000E-01   .2965954E-01   .1641310E-01   .3039332E+00
   .0000000E+00   .0000000E+00   .1125000E-01   .2834792E-01   .1213294E-01   .3095238E+00
   .0000000E+00   .0000000E+00   .1250000E-01   .2715762E-01   .9017130E-02   .3138290E+00
   .0000000E+00   .0000000E+00   .1375000E-01   .2606752E-01   .6733511E-02   .3172020E+00
   .0000000E+00   .0000000E+00   .1500000E-01   .2506154E-01   .5049855E-02   .3198910E+00
   .0000000E+00   .0000000E+00   .1625000E-01   .2412720E-01   .3801974E-02   .3220728E+00
   .0000000E+00   .0000000E+00   .1750000E-01   .2325470E-01   .2872682E-02   .3238742E+00
   .0000000E+00   .0000000E+00   .1875000E-01   .2243625E-01   .2177648E-02   .3253874E+00
   .0000000E+00   .0000000E+00   .2000000E-01   .2166554E-01   .1655753E-02   .3266797E+00
   .0000000E+00   .0000000E+00   .2125000E-01   .2093744E-01   .1262421E-02   .3278010E+00
   .0000000E+00   .0000000E+00   .2250000E-01   .2024767E-01   .9649594E-03   .3287880E+00
   .0000000E+00   .0000000E+00   .2375000E-01   .1959267E-01   .7392713E-03   .3296686E+00
   .0000000E+00   .0000000E+00   .2500000E-01   .1896942E-01   .5675124E-03   .3304635E+00
   .0000000E+00   .0000000E+00   .2625000E-01   .1837532E-01   .4364134E-03   .3311886E+00
   .0000000E+00   .0000000E+00   .2750000E-01   .1780813E-01   .3360693E-03   .3318561E+00
   .0000000E+00   .0000000E+00   .2875000E-01   .1726590E-01   .2590589E-03   .3324753E+00
   .0000000E+00   .0000000E+00   .3000000E-01   .1674689E-01   .1998033E-03   .3330535E+00
   .0000000E+00   .0000000E+00   .3125000E-01   .1624958E-01   .1540952E-03   .3335965E+00
   .0000000E+00   .0000000E+00   .3250000E-01   .1577259E-01   .1187511E-03   .3341088E+00
   .0000000E+00   .0000000E+00   .3375000E-01   .1531470E-01   .9135575E-04   .3345941E+00
   .0000000E+00   .0000000E+00   .3500000E-01   .1487477E-01   .7007018E-04   .3350552E+00
   .0000000E+00   .0000000E+00   .3625000E-01   .1445180E-01   .5349053E-04   .3354948E+00
   .0000000E+00   .0000000E+00   .3750000E-01   .1404485E-01   .4053980E-04   .3359147E+00
   .0000000E+00   .0000000E+00   .3875000E-01   .1365308E-01   .3038830E-04   .3363166E+00
   .0000000E+00   .0000000E+00   .4000000E-01   .1327568E-01   .2239019E-04   .3367020E+00
   .0000000E+00   .0000000E+00   .4125000E-01   .1291194E-01   .1603583E-04   .3370721E+00
   .0000000E+00   .0000000E+00   .4250000E-01   .1256117E-01   .1090986E-04   .3374279E+00
   .0000000E+00   .0000000E+00   .4375000E-01   .1222275E-01   .6655265E-05   .3377706E+00
   .0000000E+00   .0000000E+00   .4500000E-01   .1189606E-01   .2933167E-05   .3381010E+00
   .0000000E+00   .0000000E+00   .4625000E-01   .1158056E-01   .1000000E-09   .3384195E+00
   .0000000E+00   .0000000E+00   .4750000E-01   .1127571E-01   .1000000E-09   .3387243E+00
   .0000000E+00   .0000000E+00   .4875000E-01   .1098107E-01   .1000000E-09   .3390189E+00
   .0000000E+00   .0000000E+00   .5000000E-01   .1069619E-01   .1000000E-09   .3393038E+00
   .0000000E+00   .0000000E+00   .5125000E-01   .1042066E-01   .1000000E-09   .3395793E+00
   .0000000E+00   .0000000E+00   .5250000E-01   .1015407E-01   .1000000E-09   .3398459E+00
   .0000000E+00   .0000000E+00   .5375000E-01   .9896060E-02   .1000000E-09   .3401039E+00
   .0000000E+00   .0000000E+00   .5500000E-01   .9646266E-02   .1000000E-09   .3403537E+00
   .0000000E+00   .0000000E+00   .5625000E-01   .9404354E-02   .1000000E-09   .3405956E+00
   .0000000E+00   .0000000E+00   .5750000E-01   .9170008E-02   .1000000E-09   .3408300E+00
   .0000000E+00   .0000000E+00   .5875000E-01   .8942926E-02   .1000000E-09   .3410571E+00
   .0000000E+00   .0000000E+00   .6000000E-01   .8722824E-02   .1000000E-09   .3412772E+00
   .0000000E+00   .0000000E+00   .6125000E-01   .8509432E-02   .1000000E-09   .3414906E+00
   .0000000E+00   .0000000E+00   .6250000E-01   .8302493E-02   .1000000E-09   .3416975E+00
   .0000000E+00   .0000000E+00   .6375000E-01   .8101765E-02   .1000000E-09   .3418982E+00
   .0000000E+00   .0000000E+00   .6500000E-01   .7907018E-02   .1000000E-09   .3420930E+00
   .0000000E+00   .0000000E+00   .6625000E-01   .7718035E-02   .1000000E-09   .3422820E+00
   .0000000E+00   .0000000E+00   .6750000E-01   .7534609E-02   .1000000E-09   .3424654E+00
   .0000000E+00   .0000000E+00   .6875000E-01   .7356546E-02   .1000000E-09   .3426435E+00
   .0000000E+00   .0000000E+00   .7000000E-01   .7183666E-02   .1000000E-09   .3428163E+00
   .0000000E+00   .0000000E+00   .7125000E-01   .7015795E-02   .1000000E-09   .3429842E+00
   .0000000E+00   .0000000E+00   .7250000E-01   .6852777E-02   .1000000E-09   .3431472E+00
   .0000000E+00   .0000000E+00   .7375000E-01   .6694465E-02   .1000000E-09   .3433055E+00
   .0000000E+00   .0000000E+00   .7500000E-01   .6540728E-02   .1000000E-09   .3434593E+00
   .0000000E+00   .0000000E+00   .7625000E-01   .6391446E-02   .1000000E-09   .3436086E+00
   .0000000E+00   .0000000E+00   .7750000E-01   .6246521E-02   .1000000E-09   .3437535E+00
   .0000000E+00   .0000000E+00   .7875000E-01   .6105870E-02   .1000000E-09   .3438941E+00
   .0000000E+00   .0000000E+00   .8000000E-01   .5969434E-02   .1000000E-09   .3440306E+00
   .0000000E+00   .0000000E+00   .8125000E-01   .5837178E-02   .1000000E-09   .3441628E+00
   .0000000E+00   .0000000E+00   .8250000E-01   .5709104E-02   .1000000E-09   .3442909E+00
   .0000000E+00   .0000000E+00   .8375000E-01   .5585247E-02   .1000000E-09   .3444148E+00
   .0000000E+00   .0000000E+00   .8500000E-01   .5465694E-02   .1000000E-09   .3445343E+00
   .0000000E+00   .0000000E+00   .8625000E-01   .5350589E-02   .1000000E-09   .3446494E+00
   .0000000E+00   .0000000E+00   .8750000E-01   .5240151E-02   .1000000E-09   .3447598E+00
   .0000000E+00   .0000000E+00   .8875000E-01   .5134696E-02   .1000000E-09   .3448653E+00
   .0000000E+00   .0000000E+00   .9000000E-01   .5034654E-02   .1000000E-09   .3449653E+00
   .0000000E+00   .0000000E+00   .9125000E-01   .4940606E-02   .1000000E-09   .3450594E+00
   .0000000E+00   .0000000E+00   .9250000E-01   .4853324E-02   .1000000E-09   .3451467E+00
   .0000000E+00   .0000000E+00   .9375000E-01   .4773823E-02   .1000000E-09   .3452262E+00
   .0000000E+00   .0000000E+00   .9500000E-01   .4703429E-02   .1000000E-09   .3452966E+00
   .0000000E+00   .0000000E+00   .9625000E-01   .4643864E-02   .1000000E-09   .3453561E+00
   .0000000E+00   .0000000E+00   .9750000E-01   .4597357E-02   .1000000E-09   .3454026E+00
   .0000000E+00   .0000000E+00   .9875000E-01   .4566793E-02   .1000000E-09   .3454332E+00
   .0000000E+00   .0000000E+00   .1000000E+00   .4555904E-02   .1000000E-09   .3454441E+00
