title = "dataset perm2"
variables = "x", "y", "z", "h_w", "p_w", "s_w", "theta_a"
zone t = "Flow variables, solution time =  2.500E+02 years       " i =   81, j =    1, k =    1,  f=point
   .0000000E+00   .0000000E+00   .0000000E+00   .3500000E-03   .3500000E-03   .1000000E+01   .1500710E+00
   .0000000E+00   .0000000E+00   .1250000E-02   .3050277E-03  -.9449723E-03   .1000000E+01   .2021369E+00
   .0000000E+00   .0000000E+00   .2500000E-02   .2864764E-03  -.2213524E-02   .1000000E+01   .2382846E+00
   .0000000E+00   .0000000E+00   .3750000E-02   .2752763E-03  -.3474724E-02   .1000000E+01   .2637595E+00
   .0000000E+00   .0000000E+00   .5000000E-02   .2671515E-03  -.4732849E-02   .1000000E+01   .2819653E+00
   .0000000E+00   .0000000E+00   .6250000E-02   .2606066E-03  -.5989393E-02   .1000000E+01   .2951470E+00
   .0000000E+00   .0000000E+00   .7500000E-02   .2549792E-03  -.7245021E-02   .1000000E+01   .3048096E+00
   .0000000E+00   .0000000E+00   .8750000E-02   .2499293E-03  -.8500071E-02   .1000000E+01   .3119774E+00
   .0000000E+00   .0000000E+00   .1000000E-01   .2452638E-03  -.9754736E-02   .1000000E+01   .3173575E+00
   .0000000E+00   .0000000E+00   .1125000E-01   .2408653E-03  -.1100913E-01   .1000000E+01   .3214443E+00
   .0000000E+00   .0000000E+00   .1250000E-01   .2366586E-03  -.1226334E-01   .1000000E+01   .3245874E+00
   .0000000E+00   .0000000E+00   .1375000E-01   .2325934E-03  -.1351741E-01   .1000000E+01   .3270364E+00
   .0000000E+00   .0000000E+00   .1500000E-01   .2286352E-03  -.1477136E-01   .1000000E+01   .3289711E+00
   .0000000E+00   .0000000E+00   .1625000E-01   .2247597E-03  -.1602524E-01   .1000000E+01   .3305219E+00
   .0000000E+00   .0000000E+00   .1750000E-01   .2209495E-03  -.1727905E-01   .1000000E+01   .3317844E+00
   .0000000E+00   .0000000E+00   .1875000E-01   .2171919E-03  -.1853281E-01   .1000000E+01   .3328286E+00
   .0000000E+00   .0000000E+00   .2000000E-01   .2134774E-03  -.1978652E-01   .1000000E+01   .3337064E+00
   .0000000E+00   .0000000E+00   .2125000E-01   .2097991E-03  -.2104020E-01   .1000000E+01   .3344564E+00
   .0000000E+00   .0000000E+00   .2250000E-01   .2061514E-03  -.2229385E-01   .1000000E+01   .3351073E+00
   .0000000E+00   .0000000E+00   .2375000E-01   .2025304E-03  -.2354747E-01   .1000000E+01   .3356808E+00
   .0000000E+00   .0000000E+00   .2500000E-01   .1989328E-03  -.2480107E-01   .1000000E+01   .3361931E+00
   .0000000E+00   .0000000E+00   .2625000E-01   .1953561E-03  -.2605464E-01   .1000000E+01   .3366567E+00
   .0000000E+00   .0000000E+00   .2750000E-01   .1917983E-03  -.2730820E-01   .1000000E+01   .3370808E+00
   .0000000E+00   .0000000E+00   .2875000E-01   .1882577E-03  -.2856174E-01   .1000000E+01   .3374728E+00
   .0000000E+00   .0000000E+00   .3000000E-01   .1847331E-03  -.2981527E-01   .1000000E+01   .3378380E+00
   .0000000E+00   .0000000E+00   .3125000E-01   .1812233E-03  -.3106878E-01   .1000000E+01   .3381809E+00
   .0000000E+00   .0000000E+00   .3250000E-01   .1777274E-03  -.3232227E-01   .1000000E+01   .3385047E+00
   .0000000E+00   .0000000E+00   .3375000E-01   .1742446E-03  -.3357576E-01   .1000000E+01   .3388120E+00
   .0000000E+00   .0000000E+00   .3500000E-01   .1707741E-03  -.3482923E-01   .1000000E+01   .3391049E+00
   .0000000E+00   .0000000E+00   .3625000E-01   .1673155E-03  -.3608268E-01   .1000000E+01   .3393851E+00
   .0000000E+00   .0000000E+00   .3750000E-01   .1638681E-03  -.3733613E-01   .1000000E+01   .3396539E+00
   .0000000E+00   .0000000E+00   .3875000E-01   .1604314E-03  -.3858957E-01   .1000000E+01   .3399124E+00
   .0000000E+00   .0000000E+00   .4000000E-01   .1570051E-03  -.3984299E-01   .1000000E+01   .3401614E+00
   .0000000E+00   .0000000E+00   .4125000E-01   .1535887E-03  -.4109641E-01   .1000000E+01   .3404017E+00
   .0000000E+00   .0000000E+00   .4250000E-01   .1501819E-03  -.4234982E-01   .1000000E+01   .3406339E+00
   .0000000E+00   .0000000E+00   .4375000E-01   .1467842E-03  -.4360322E-01   .1000000E+01   .3408585E+00
   .0000000E+00   .0000000E+00   .4500000E-01   .1433955E-03  -.4485660E-01   .1000000E+01   .3410761E+00
   .0000000E+00   .0000000E+00   .4625000E-01   .1400153E-03  -.4610998E-01   .1000000E+01   .3412870E+00
   .0000000E+00   .0000000E+00   .4750000E-01   .1366434E-03  -.4736336E-01   .1000000E+01   .3414917E+00
   .0000000E+00   .0000000E+00   .4875000E-01   .1332795E-03  -.4861672E-01   .1000000E+01   .3416902E+00
   .0000000E+00   .0000000E+00   .5000000E-01   .1299234E-03  -.4987008E-01   .1000000E+01   .3418815E+00
   .0000000E+00   .0000000E+00   .5125000E-01   .1265748E-03  -.5112343E-01   .1000000E+01   .3420675E+00
   .0000000E+00   .0000000E+00   .5250000E-01   .1232334E-03  -.5237677E-01   .1000000E+01   .3422483E+00
   .0000000E+00   .0000000E+00   .5375000E-01   .1198990E-03  -.5363010E-01   .1000000E+01   .3424242E+00
   .0000000E+00   .0000000E+00   .5500000E-01   .1165714E-03  -.5488343E-01   .1000000E+01   .3425952E+00
   .0000000E+00   .0000000E+00   .5625000E-01   .1132505E-03  -.5613675E-01   .1000000E+01   .3427617E+00
   .0000000E+00   .0000000E+00   .5750000E-01   .1099360E-03  -.5739006E-01   .1000000E+01   .3429236E+00
   .0000000E+00   .0000000E+00   .5875000E-01   .1066277E-03  -.5864337E-01   .1000000E+01   .3430812E+00
   .0000000E+00   .0000000E+00   .6000000E-01   .1033255E-03  -.5989667E-01   .1000000E+01   .3432346E+00
   .0000000E+00   .0000000E+00   .6125000E-01   .1000292E-03  -.6114997E-01   .1000000E+01   .3433840E+00
   .0000000E+00   .0000000E+00   .6250000E-01   .9673854E-04  -.6240326E-01   .1000000E+01   .3435293E+00
   .0000000E+00   .0000000E+00   .6375000E-01   .9345349E-04  -.6365655E-01   .1000000E+01   .3436709E+00
   .0000000E+00   .0000000E+00   .6500000E-01   .9017384E-04  -.6490983E-01   .1000000E+01   .3438088E+00
   .0000000E+00   .0000000E+00   .6625000E-01   .8689944E-04  -.6616310E-01   .1000000E+01   .3439431E+00
   .0000000E+00   .0000000E+00   .6750000E-01   .8363014E-04  -.6741637E-01   .1000000E+01   .3440739E+00
   .0000000E+00   .0000000E+00   .6875000E-01   .8036580E-04  -.6866963E-01   .1000000E+01   .3442013E+00
   .0000000E+00   .0000000E+00   .7000000E-01   .7710630E-04  -.6992289E-01   .1000000E+01   .3443254E+00
   .0000000E+00   .0000000E+00   .7125000E-01   .7385148E-04  -.7117615E-01   .1000000E+01   .3444463E+00
   .0000000E+00   .0000000E+00   .7250000E-01   .7060124E-04  -.7242940E-01   .1000000E+01   .3445641E+00
   .0000000E+00   .0000000E+00   .7375000E-01   .6735543E-04  -.7368264E-01   .1000000E+01   .3446789E+00
   .0000000E+00   .0000000E+00   .7500000E-01   .6411394E-04  -.7493589E-01   .1000000E+01   .3447906E+00
   .0000000E+00   .0000000E+00   .7625000E-01   .6087665E-04  -.7618912E-01   .1000000E+01   .3448995E+00
   .0000000E+00   .0000000E+00   .7750000E-01   .5764345E-04  -.7744236E-01   .1000000E+01   .3450055E+00
   .0000000E+00   .0000000E+00   .7875000E-01   .5441422E-04  -.7869559E-01   .1000000E+01   .3451086E+00
   .0000000E+00   .0000000E+00   .8000000E-01   .5118884E-04  -.7994881E-01   .1000000E+01   .3452090E+00
   .0000000E+00   .0000000E+00   .8125000E-01   .4796721E-04  -.8120203E-01   .1000000E+01   .3453065E+00
   .0000000E+00   .0000000E+00   .8250000E-01   .4474921E-04  -.8245525E-01   .1000000E+01   .3454011E+00
   .0000000E+00   .0000000E+00   .8375000E-01   .4153473E-04  -.8370847E-01   .1000000E+01   .3454929E+00
   .0000000E+00   .0000000E+00   .8500000E-01   .3832366E-04  -.8496168E-01   .1000000E+01   .3455817E+00
   .0000000E+00   .0000000E+00   .8625000E-01   .3511587E-04  -.8621488E-01   .1000000E+01   .3456673E+00
   .0000000E+00   .0000000E+00   .8750000E-01   .3191124E-04  -.8746809E-01   .1000000E+01   .3457497E+00
   .0000000E+00   .0000000E+00   .8875000E-01   .2870964E-04  -.8872129E-01   .1000000E+01   .3458285E+00
   .0000000E+00   .0000000E+00   .9000000E-01   .2551093E-04  -.8997449E-01   .1000000E+01   .3459033E+00
   .0000000E+00   .0000000E+00   .9125000E-01   .2231494E-04  -.9122769E-01   .1000000E+01   .3459738E+00
   .0000000E+00   .0000000E+00   .9250000E-01   .1912150E-04  -.9248088E-01   .1000000E+01   .3460393E+00
   .0000000E+00   .0000000E+00   .9375000E-01   .1593040E-04  -.9373407E-01   .1000000E+01   .3460991E+00
   .0000000E+00   .0000000E+00   .9500000E-01   .1274141E-04  -.9498726E-01   .1000000E+01   .3461520E+00
   .0000000E+00   .0000000E+00   .9625000E-01   .9554251E-05  -.9624045E-01   .1000000E+01   .3461969E+00
   .0000000E+00   .0000000E+00   .9750000E-01   .6368584E-05  -.9749363E-01   .1000000E+01   .3462319E+00
   .0000000E+00   .0000000E+00   .9875000E-01   .3184000E-05  -.9874682E-01   .1000000E+01   .3462550E+00
   .0000000E+00   .0000000E+00   .1000000E+00   .0000000E+00  -.1000000E+00   .1000000E+01   .3462632E+00
